50
Lattice="10.0 0.0 0.0 5.0 8.660254037844386 0.0 0.0 0.0 21.66" Properties=species:S:1:pos:R:3:move_mask:L:1:momenta:R:3:forces:R:3 energy=-344.6047209618455 free_energy=-344.6047209618455 stress="-0.0033895643540761402 -0.003382461629231534 -1.5389948544941078e-07 -0.003382461629231534 -0.004333502715937925 0.00013324752094626295 -1.5389948544941078e-07 0.00013324752094626295 -5.678204631857102e-05" pbc="T T F"
B        0.00000000       0.00000000       0.00000000  F       0.00000000       0.00000000       0.00000000     -11.61075297      -7.37063576      -0.00086076
N        0.83333333       0.83333333       0.00000000  F       0.00000000       0.00000000       0.00000000      11.61429719       7.37547880      -0.00048406
B        1.25000000       2.16506351       0.00000000  F       0.00000000       0.00000000       0.00000000     -11.61668483      -7.38092671      -0.00417035
N        2.08333333       2.99839684       0.00000000  F       0.00000000       0.00000000       0.00000000      11.61442771       7.38212090       0.00637590
B        2.50000000       4.33012702       0.00000000  F       0.00000000       0.00000000       0.00000000     -11.61311285      -7.39330424      -0.02411183
N        3.33333333       5.16346035       0.00000000  F       0.00000000       0.00000000       0.00000000      11.61693002       7.38527974       0.01748672
B        3.75000000       6.49519053       0.00000000  F       0.00000000       0.00000000       0.00000000     -11.60324332      -7.38008456      -0.01660459
N        4.58333333       7.32852386       0.00000000  F       0.00000000       0.00000000       0.00000000      11.61169348       7.37254859       0.00188747
B        2.50000000       0.00000000       0.00000000  F       0.00000000       0.00000000       0.00000000     -11.61386050      -7.37247947       0.00002509
N        3.33333333       0.83333333       0.00000000  F       0.00000000       0.00000000       0.00000000      11.61477101       7.37375653       0.00034459
B        3.75000000       2.16506351       0.00000000  F       0.00000000       0.00000000       0.00000000     -11.61188521      -7.37791340      -0.00276396
N        4.58333333       2.99839684       0.00000000  F       0.00000000       0.00000000       0.00000000      11.61375877       7.37512184       0.00442921
B        5.00000000       4.33012702       0.00000000  F       0.00000000       0.00000000       0.00000000     -11.60540297      -7.37871335      -0.00494707
N        5.83333333       5.16346035       0.00000000  F       0.00000000       0.00000000       0.00000000      11.61356072       7.37296987       0.00204638
B        6.25000000       6.49519053       0.00000000  F       0.00000000       0.00000000       0.00000000     -11.61024415      -7.37240750      -0.00085515
N        7.08333333       7.32852386       0.00000000  F       0.00000000       0.00000000       0.00000000      11.61590126       7.37158305      -0.00025699
B        5.00000000       0.00000000       0.00000000  F       0.00000000       0.00000000       0.00000000     -11.61685020      -7.36954035      -0.00396091
N        5.83333333       0.83333333       0.00000000  F       0.00000000       0.00000000       0.00000000      11.61400943       7.37558433       0.00023952
B        6.25000000       2.16506351       0.00000000  F       0.00000000       0.00000000       0.00000000     -11.61296821      -7.37222867       0.00001067
N        7.08333333       2.99839684       0.00000000  F       0.00000000       0.00000000       0.00000000      11.61507495       7.37136889      -0.00021891
B        7.50000000       4.33012702       0.00000000  F       0.00000000       0.00000000       0.00000000     -11.61254189      -7.37301992       0.00006916
N        8.33333333       5.16346035       0.00000000  F       0.00000000       0.00000000       0.00000000      11.61440264       7.37321098       0.00074953
B        8.75000000       6.49519053       0.00000000  F       0.00000000       0.00000000       0.00000000     -11.62205969      -7.37565972      -0.00542512
N        9.58333333       7.32852386       0.00000000  F       0.00000000       0.00000000       0.00000000      11.61199398       7.37696460       0.00469355
B        7.50000000       0.00000000       0.00000000  F       0.00000000       0.00000000       0.00000000     -11.61399953      -7.37232779      -0.00551923
N        8.33333333       0.83333333       0.00000000  F       0.00000000       0.00000000       0.00000000      11.61261157       7.37208526       0.00029090
B        8.75000000       2.16506351       0.00000000  F       0.00000000       0.00000000       0.00000000     -11.61388118      -7.37204718      -0.00012053
N        9.58333333       2.99839684       0.00000000  F       0.00000000       0.00000000       0.00000000      11.61741391       7.37977081       0.00268336
B       10.00000000       4.33012702       0.00000000  F       0.00000000       0.00000000       0.00000000     -11.62949535      -7.38857839      -0.01487866
N       10.83333333       5.16346035       0.00000000  F       0.00000000       0.00000000       0.00000000      11.61988750       7.39113767       0.01346963
B       11.25000000       6.49519053       0.00000000  F       0.00000000       0.00000000       0.00000000     -11.63523239      -7.38650391      -0.02319466
N       12.08333333       7.32852386       0.00000000  F       0.00000000       0.00000000       0.00000000      11.61914903       7.38626174       0.01212700
C        1.78410265       5.77411213       4.98130148  T      -0.20941923       1.14620389      -0.75385778      -0.73882400       1.37302324      -1.11431196
H        2.36971886       5.66838952       4.03235644  T       0.00403901       0.15688045      -0.11458511      -0.36816526       0.11792894       0.68549192
H        0.86564284       6.47380484       4.93091969  T       0.00481473       0.40231309       0.14272325       1.36360165      -1.20321481       0.33366510
C        2.32712444       5.20040729       6.14808913  T       0.18997988       1.13594669      -1.44454324      -0.03556613       0.12711611      -0.74485797
H        3.41952036       5.24734030       6.31040488  T       0.09346931       0.11398017      -0.12340840      -0.18354372       0.34851190       0.02541925
H        1.80153263       5.37690941       7.12118592  T      -0.18557496       0.31937502      -0.19704652       0.33284903       0.58132381      -0.68694208
C        2.03202871       3.74701603       5.73185323  T      -0.27191134      -0.65756347       1.59445182      -1.20777974      -0.08878349       0.14913251
H        2.80976281       3.25114855       5.13197845  T       0.43717072      -0.21166280       0.19411818      -0.05912477       0.26263802       0.01687616
H        1.00417761       3.64576396       5.26417400  T       0.12623622       0.01608206       0.11807551       0.95541260       0.08942838       0.07904801
C        1.94490090       3.22399305       7.14178236  T      -0.73732545       0.43309871       1.44780711      -0.76482668      -0.55860822       0.28625043
H        2.76769406       3.66526097       7.67674418  T       0.04910291      -0.24739678       0.35062315       0.74881708      -0.29273978       0.68420166
H        1.06290075       3.72139039       7.54613402  T      -0.01144094      -0.01714540       0.17184915      -0.33464459      -0.22498059       0.40150083
C        1.83644337       1.72766460       7.39950589  T       0.85144583      -0.00851751      -1.24986359      -0.33875290       2.35645089      -1.09397382
H        2.11778878       1.18537835       6.50888936  T      -0.00218659       0.46537152      -0.10139305       0.49087845      -0.30946298      -0.58993440
H        0.81006597       1.36385923       7.41992430  T      -0.24307557       0.01863038      -0.12829163      -0.44436104       0.02306336       0.32571153
C        2.53477905       1.27063592       8.48648022  T       0.33589970      -1.71153335       1.06964283       0.06225071      -1.56563594       0.31867524
H        3.11819713       1.74464345       9.29820802  T      -0.22597060       0.08315218       0.28328074      -0.37366302      -0.13212471      -0.48972848
H        2.35989790       0.21053264       8.29104561  T       0.44234509      -0.26917112      -0.17623141       0.89777436      -0.90280679       1.45522017
