50
Lattice="10.0 0.0 0.0 5.0 8.660254037844386 0.0 0.0 0.0 21.66" Properties=species:S:1:pos:R:3:move_mask:L:1:momenta:R:3:forces:R:3 energy=-339.6283340130127 free_energy=-339.6283340130127 stress="-0.0034697218400801585 -0.003495728785648501 0.00014907313666803887 -0.003495728785648501 -0.004245961929731526 -0.00011024509739434595 0.00014907313666803887 -0.00011024509739434595 -0.00013610634940700185" pbc="T T F"
B        0.00000000       0.00000000       0.00000000  F       0.00000000       0.00000000       0.00000000     -11.61396918      -7.37179508      -0.00000876
N        0.83333333       0.83333333       0.00000000  F       0.00000000       0.00000000       0.00000000      11.61388701       7.37268196      -0.00006112
B        1.25000000       2.16506351       0.00000000  F       0.00000000       0.00000000       0.00000000     -11.61369344      -7.37394332      -0.00182973
N        2.08333333       2.99839684       0.00000000  F       0.00000000       0.00000000       0.00000000      11.61225199       7.37517042       0.00354395
B        2.50000000       4.33012702       0.00000000  F       0.00000000       0.00000000       0.00000000     -11.61256547      -7.37366454      -0.00263606
N        3.33333333       5.16346035       0.00000000  F       0.00000000       0.00000000       0.00000000      11.61239380       7.37203559       0.00077511
B        3.75000000       6.49519053       0.00000000  F       0.00000000       0.00000000       0.00000000     -11.61372100      -7.37175789      -0.00003867
N        4.58333333       7.32852386       0.00000000  F       0.00000000       0.00000000       0.00000000      11.61408633       7.37188238      -0.00000313
B        2.50000000       0.00000000       0.00000000  F       0.00000000       0.00000000       0.00000000     -11.61378423      -7.37172284      -0.00000826
N        3.33333333       0.83333333       0.00000000  F       0.00000000       0.00000000       0.00000000      11.61377738       7.37182509       0.00000534
B        3.75000000       2.16506351       0.00000000  F       0.00000000       0.00000000       0.00000000     -11.61349568      -7.37197586      -0.00005159
N        4.58333333       2.99839684       0.00000000  F       0.00000000       0.00000000       0.00000000      11.61363563       7.37187863       0.00000590
B        5.00000000       4.33012702       0.00000000  F       0.00000000       0.00000000       0.00000000     -11.61355900      -7.37186511      -0.00002440
N        5.83333333       5.16346035       0.00000000  F       0.00000000       0.00000000       0.00000000      11.61402922       7.37171667      -0.00000226
B        6.25000000       6.49519053       0.00000000  F       0.00000000       0.00000000       0.00000000     -11.61388361      -7.37165902       0.00000158
N        7.08333333       7.32852386       0.00000000  F       0.00000000       0.00000000       0.00000000      11.61397027       7.37154779      -0.00000178
B        5.00000000       0.00000000       0.00000000  F       0.00000000       0.00000000       0.00000000     -11.61389041      -7.37165539      -0.00000067
N        5.83333333       0.83333333       0.00000000  F       0.00000000       0.00000000       0.00000000      11.61392393       7.37166203      -0.00000068
B        6.25000000       2.16506351       0.00000000  F       0.00000000       0.00000000       0.00000000     -11.61391120      -7.37167253      -0.00000014
N        7.08333333       2.99839684       0.00000000  F       0.00000000       0.00000000       0.00000000      11.61414658       7.37169367       0.00000132
B        7.50000000       4.33012702       0.00000000  F       0.00000000       0.00000000       0.00000000     -11.61400720      -7.37194036      -0.00001580
N        8.33333333       5.16346035       0.00000000  F       0.00000000       0.00000000       0.00000000      11.61497070       7.37167751      -0.00001032
B        8.75000000       6.49519053       0.00000000  F       0.00000000       0.00000000       0.00000000     -11.61389289      -7.37196218      -0.00000406
N        9.58333333       7.32852386       0.00000000  F       0.00000000       0.00000000       0.00000000      11.61414436       7.37159236       0.00000433
B        7.50000000       0.00000000       0.00000000  F       0.00000000       0.00000000       0.00000000     -11.61391026      -7.37163099      -0.00000294
N        8.33333333       0.83333333       0.00000000  F       0.00000000       0.00000000       0.00000000      11.61393365       7.37176573      -0.00001534
B        8.75000000       2.16506351       0.00000000  F       0.00000000       0.00000000       0.00000000     -11.61425895      -7.37258346      -0.00060074
N        9.58333333       2.99839684       0.00000000  F       0.00000000       0.00000000       0.00000000      11.61501822       7.37507807       0.00399963
B       10.00000000       4.33012702       0.00000000  F       0.00000000       0.00000000       0.00000000     -11.61556766      -7.37433872      -0.00371701
N       10.83333333       5.16346035       0.00000000  F       0.00000000       0.00000000       0.00000000      11.61346475       7.37219826       0.00346203
B       11.25000000       6.49519053       0.00000000  F       0.00000000       0.00000000       0.00000000     -11.61358250      -7.37197933      -0.00079877
N       12.08333333       7.32852386       0.00000000  F       0.00000000       0.00000000       0.00000000      11.61409643       7.37199138      -0.00003289
C        0.46881580       3.62745267       5.98517966  T      -1.59614119      -2.03657017      -1.14725430       0.50973076      -0.58493924      -4.23564007
H        1.15238918       4.09525775       5.16946061  T       0.34058204      -1.11299312      -0.90822570      -0.38163362      -1.44658106       1.01897411
H       -0.38986049       3.02331918       5.58988865  T      -0.33727115       0.14282205       0.41502669       0.91498414      -0.26355821       0.62789065
C        0.15819004       4.67467258       6.80633850  T       0.92160052      -0.38205627      -2.53842818      -2.77711861       2.16029604       1.80699552
H       -0.26386210       4.42475731       7.79450554  T      -0.43273603       0.13663339      -0.10821422      -0.72760672      -0.39134879      -0.21479931
H       -0.62760579       5.21381177       6.11444969  T       0.03031101      -0.17450955      -0.10295417       0.69976858      -0.58090536       1.26063917
C        1.17029116       5.71623512       7.28857730  T      -2.38818982       0.96653062       3.04361553       0.87609340       1.26529845      -0.17448166
H        2.15589599       5.12132044       6.95104801  T       0.14831668       0.12456467       1.61817368      -1.01301140       2.40943932      -1.03812409
H        0.49438075       6.73828452       7.23288764  T      -0.92382211       0.76131509       0.17281103       2.59638009      -1.68870370      -0.90739275
C        1.59589451       5.78128933       8.66764105  T       0.37542849      -1.27180230      -1.09605631       5.47512173       3.54217535      -1.84446036
H        1.43785009       4.88207738       9.19894892  T       1.03393658      -0.10271988       0.45862360       2.38092146      -7.09143288      -0.04666604
H        0.98807945       5.46198901       9.36123350  T       0.30272150      -0.22808147       0.11122231      -8.36199822       2.27887370       5.62497091
C        2.73180743       6.34122446       9.38320399  T      -0.61977090       2.62952068       1.88115280       0.19775061      -0.44762853      -3.50512614
H        3.57373981       5.63026274       9.34223984  T      -0.35036506      -0.36460960      -0.13911475      -0.15841392      -0.08345258      -0.03169852
H        3.50505610       8.63790871       9.32022237  T       0.33665732       0.48748223       0.92381707      -0.12067793      -3.27258599       1.59106092
C        3.10835385       7.58509174       9.95555654  T       2.49659551       1.05992193      -1.62596461      -2.34991636       3.23623576       1.11365290
H        2.17291865       8.11228852      10.43879304  T      -0.10538845      -0.42104848       0.32128614       0.99657010      -0.70025628      -0.80669195
H        3.44516292       7.06389908      10.91907236  T      -0.26554403      -0.15864695      -0.04271106       1.24301836       1.65882305      -0.24103737
