50
Lattice="10.0 0.0 0.0 5.0 8.660254037844386 0.0 0.0 0.0 21.66" Properties=species:S:1:pos:R:3:move_mask:L:1:momenta:R:3:forces:R:3 energy=-338.9839362787127 free_energy=-338.9839362787127 stress="-0.0031471872449023754 -0.00333376056088664 6.52279294993278e-06 -0.00333376056088664 -0.004135950179997788 0.00011706782428335567 6.52279294993278e-06 0.00011706782428335567 -1.578433002154509e-05" pbc="T T F"
B        0.00000000       0.00000000       0.00000000  F       0.00000000       0.00000000       0.00000000     -11.61386678      -7.37169484       0.00000000
N        0.83333333       0.83333333       0.00000000  F       0.00000000       0.00000000       0.00000000      11.61386680       7.37169490       0.00000000
B        1.25000000       2.16506351       0.00000000  F       0.00000000       0.00000000       0.00000000     -11.61386680      -7.37169489       0.00000000
N        2.08333333       2.99839684       0.00000000  F       0.00000000       0.00000000       0.00000000      11.61386680       7.37169489       0.00000000
B        2.50000000       4.33012702       0.00000000  F       0.00000000       0.00000000       0.00000000     -11.61386680      -7.37169489       0.00000000
N        3.33333333       5.16346035       0.00000000  F       0.00000000       0.00000000       0.00000000      11.61386680       7.37169489       0.00000000
B        3.75000000       6.49519053       0.00000000  F       0.00000000       0.00000000       0.00000000     -11.61386680      -7.37169490       0.00000000
N        4.58333333       7.32852386       0.00000000  F       0.00000000       0.00000000       0.00000000      11.61386678       7.37169483       0.00000000
B        2.50000000       0.00000000       0.00000000  F       0.00000000       0.00000000       0.00000000     -11.61386678      -7.37169484       0.00000000
N        3.33333333       0.83333333       0.00000000  F       0.00000000       0.00000000       0.00000000      11.61386680       7.37169490       0.00000000
B        3.75000000       2.16506351       0.00000000  F       0.00000000       0.00000000       0.00000000     -11.61386680      -7.37169489       0.00000000
N        4.58333333       2.99839684       0.00000000  F       0.00000000       0.00000000       0.00000000      11.61386680       7.37169489       0.00000000
B        5.00000000       4.33012702       0.00000000  F       0.00000000       0.00000000       0.00000000     -11.61386680      -7.37169489       0.00000000
N        5.83333333       5.16346035       0.00000000  F       0.00000000       0.00000000       0.00000000      11.61386680       7.37169489       0.00000000
B        6.25000000       6.49519053       0.00000000  F       0.00000000       0.00000000       0.00000000     -11.61386680      -7.37169490       0.00000000
N        7.08333333       7.32852386       0.00000000  F       0.00000000       0.00000000       0.00000000      11.61386678       7.37169483       0.00000000
B        5.00000000       0.00000000       0.00000000  F       0.00000000       0.00000000       0.00000000     -11.61386678      -7.37169484       0.00000000
N        5.83333333       0.83333333       0.00000000  F       0.00000000       0.00000000       0.00000000      11.61386680       7.37169490       0.00000000
B        6.25000000       2.16506351       0.00000000  F       0.00000000       0.00000000       0.00000000     -11.61386680      -7.37169489       0.00000000
N        7.08333333       2.99839684       0.00000000  F       0.00000000       0.00000000       0.00000000      11.61386680       7.37169489       0.00000000
B        7.50000000       4.33012702       0.00000000  F       0.00000000       0.00000000       0.00000000     -11.61386680      -7.37169489       0.00000000
N        8.33333333       5.16346035       0.00000000  F       0.00000000       0.00000000       0.00000000      11.61386680       7.37169489       0.00000000
B        8.75000000       6.49519053       0.00000000  F       0.00000000       0.00000000       0.00000000     -11.61386680      -7.37169490       0.00000000
N        9.58333333       7.32852386       0.00000000  F       0.00000000       0.00000000       0.00000000      11.61386678       7.37169483       0.00000000
B        7.50000000       0.00000000       0.00000000  F       0.00000000       0.00000000       0.00000000     -11.61386678      -7.37169484       0.00000000
N        8.33333333       0.83333333       0.00000000  F       0.00000000       0.00000000       0.00000000      11.61386680       7.37169490       0.00000000
B        8.75000000       2.16506351       0.00000000  F       0.00000000       0.00000000       0.00000000     -11.61386680      -7.37169489       0.00000000
N        9.58333333       2.99839684       0.00000000  F       0.00000000       0.00000000       0.00000000      11.61386680       7.37169489       0.00000000
B       10.00000000       4.33012702       0.00000000  F       0.00000000       0.00000000       0.00000000     -11.61386680      -7.37169489       0.00000000
N       10.83333333       5.16346035       0.00000000  F       0.00000000       0.00000000       0.00000000      11.61386680       7.37169489       0.00000000
B       11.25000000       6.49519053       0.00000000  F       0.00000000       0.00000000       0.00000000     -11.61386680      -7.37169490       0.00000000
N       12.08333333       7.32852386       0.00000000  F       0.00000000       0.00000000       0.00000000      11.61386678       7.37169483       0.00000000
C        1.77356633       7.80650134       9.94081693  T      -0.33037739      -0.68712879      -1.88290160      -0.51520474      -0.98590210       0.54610250
H        2.14210489       8.58511040      10.68694534  T      -0.00419002       0.26130155      -0.73082765      -0.93255427      -0.53912488      -0.37809689
H        2.66944638       7.61113233       9.19323902  T       0.11702838      -0.38902150      -0.00872402      -2.12003357      -0.42693385       0.70080127
C        0.44049282       6.92892444      10.25279959  T       0.91648456       0.91021935       1.16934165       2.02015997       2.44078322      -1.26392965
H        0.82145315       5.96667952      10.59894565  T      -0.19743271       0.51143630       0.66037489       0.59241698      -0.14060282       0.59213087
H       -0.13735295       7.36700688      11.11662553  T      -0.76947175       0.40381254      -0.08748720       0.48277831      -0.17102892      -0.88863463
C       -0.49162768       6.39716780       9.05183764  T       0.39321019      -2.97739672       1.54355312       3.48623245       2.01526557      -0.17319890
H       -0.95771397       5.67936588       9.62013515  T       0.55247665      -0.40528991      -0.01814921      -2.39296416      -2.00588538       0.52202548
H       -1.10769961       7.16292361       8.40740531  T       0.00571040      -0.88877178       0.07104636      -0.21804331      -0.71658650       3.14982322
C        0.50113529       5.85251908       8.00351836  T      -3.99983729       2.76459631      -1.61040608      -2.44751781      -4.22195699      -2.78512270
H        1.93252345       5.56346240       7.03149352  T       0.24145105      -0.54850059       0.47793527      -1.17099925       0.35678378       1.64834143
H        0.05716643       4.72946936       7.53968891  T       1.14822302      -0.64522952      -0.58832718       2.12494233       2.92964649       1.90127777
C        0.74407717       7.01071388       7.12189552  T       1.47264859      -1.51134780      -0.07245834      -2.78855933      -0.65719534       1.22143418
H        1.10324114       6.90444134       6.13252197  T       0.38732113       0.19369807       0.11793376       1.81539995       1.10202179      -1.41196876
H        0.64546721       7.85522321       7.87566521  T      -0.34358420      -0.41140919       0.26972217       1.51242291       0.82862218      -1.55105572
C       -0.70344306       6.58850675       6.86082558  T       1.45131782       2.85574148       2.09642021       0.48086818       0.16999206      -1.26287227
H       -0.90473090       5.78974408       6.18468648  T      -0.15138813       0.51865112       0.01739371      -0.27209707      -0.44822812      -0.65262181
H       -1.47401413       7.34124261       6.69648414  T      -0.01688233       0.05896331      -0.35768609       0.34275244       0.47032981       0.08556460
