50
Lattice="10.0 0.0 0.0 5.0 8.660254037844386 0.0 0.0 0.0 21.66" Properties=species:S:1:pos:R:3:move_mask:L:1:momenta:R:3:forces:R:3 energy=-338.58594738791476 free_energy=-338.58594738791476 stress="-0.0032962577145015256 -0.0031934458651200976 0.000210949834718519 -0.0031934458651200976 -0.004618998575871611 -0.00022616466489838003 0.000210949834718519 -0.00022616466489838003 -0.00045472465723524793" pbc="T T F"
B        0.00000000       0.00000000       0.00000000  F       0.00000000       0.00000000       0.00000000     -11.61380583      -7.37167895      -0.00000194
N        0.83333333       0.83333333       0.00000000  F       0.00000000       0.00000000       0.00000000      11.61397581       7.37150658      -0.00000162
B        1.25000000       2.16506351       0.00000000  F       0.00000000       0.00000000       0.00000000     -11.61370540      -7.37172213      -0.00005844
N        2.08333333       2.99839684       0.00000000  F       0.00000000       0.00000000       0.00000000      11.61382993       7.37166583       0.00003332
B        2.50000000       4.33012702       0.00000000  F       0.00000000       0.00000000       0.00000000     -11.61345606      -7.37193480      -0.00007375
N        3.33333333       5.16346035       0.00000000  F       0.00000000       0.00000000       0.00000000      11.61395852       7.37183519       0.00001613
B        3.75000000       6.49519053       0.00000000  F       0.00000000       0.00000000       0.00000000     -11.61362379      -7.37177417      -0.00002834
N        4.58333333       7.32852386       0.00000000  F       0.00000000       0.00000000       0.00000000      11.61401416       7.37165880       0.00000205
B        2.50000000       0.00000000       0.00000000  F       0.00000000       0.00000000       0.00000000     -11.61392216      -7.37182732      -0.00001387
N        3.33333333       0.83333333       0.00000000  F       0.00000000       0.00000000       0.00000000      11.61412050       7.37173335       0.00000293
B        3.75000000       2.16506351       0.00000000  F       0.00000000       0.00000000       0.00000000     -11.61380153      -7.37164948      -0.00000217
N        4.58333333       2.99839684       0.00000000  F       0.00000000       0.00000000       0.00000000      11.61386283       7.37164025      -0.00000106
B        5.00000000       4.33012702       0.00000000  F       0.00000000       0.00000000       0.00000000     -11.61386809      -7.37171690       0.00000203
N        5.83333333       5.16346035       0.00000000  F       0.00000000       0.00000000       0.00000000      11.61391279       7.37153350      -0.00000365
B        6.25000000       6.49519053       0.00000000  F       0.00000000       0.00000000       0.00000000     -11.61436167      -7.37161130      -0.00000148
N        7.08333333       7.32852386       0.00000000  F       0.00000000       0.00000000       0.00000000      11.61453704       7.37190205       0.00001884
B        5.00000000       0.00000000       0.00000000  F       0.00000000       0.00000000       0.00000000     -11.61393621      -7.37160615      -0.00097322
N        5.83333333       0.83333333       0.00000000  F       0.00000000       0.00000000       0.00000000      11.61404597       7.37189144       0.00019880
B        6.25000000       2.16506351       0.00000000  F       0.00000000       0.00000000       0.00000000     -11.61387253      -7.37162379      -0.00000819
N        7.08333333       2.99839684       0.00000000  F       0.00000000       0.00000000       0.00000000      11.61413133       7.37235111      -0.00002298
B        7.50000000       4.33012702       0.00000000  F       0.00000000       0.00000000       0.00000000     -11.61568125      -7.37368157      -0.00072550
N        8.33333333       5.16346035       0.00000000  F       0.00000000       0.00000000       0.00000000      11.61617039       7.37289070       0.00075553
B        8.75000000       6.49519053       0.00000000  F       0.00000000       0.00000000       0.00000000     -11.61588340      -7.37259595      -0.00289878
N        9.58333333       7.32852386       0.00000000  F       0.00000000       0.00000000       0.00000000      11.61440601       7.37255122       0.00321840
B        7.50000000       0.00000000       0.00000000  F       0.00000000       0.00000000       0.00000000     -11.61366771      -7.37155483      -0.00036076
N        8.33333333       0.83333333       0.00000000  F       0.00000000       0.00000000       0.00000000      11.61387829       7.37185879      -0.00001941
B        8.75000000       2.16506351       0.00000000  F       0.00000000       0.00000000       0.00000000     -11.61445587      -7.37220096      -0.00012219
N        9.58333333       2.99839684       0.00000000  F       0.00000000       0.00000000       0.00000000      11.61489371       7.37518011       0.00072408
B       10.00000000       4.33012702       0.00000000  F       0.00000000       0.00000000       0.00000000     -11.61672189      -7.37644594      -0.00208442
N       10.83333333       5.16346035       0.00000000  F       0.00000000       0.00000000       0.00000000      11.61492170       7.37327921       0.00060688
B       11.25000000       6.49519053       0.00000000  F       0.00000000       0.00000000       0.00000000     -11.61345820      -7.37201328      -0.00257851
N       12.08333333       7.32852386       0.00000000  F       0.00000000       0.00000000       0.00000000      11.61330676       7.37231234       0.00182006
C        0.24167369       5.45259943       6.11661129  T      -2.46560703      -0.27725091      -2.66958752       0.29820227      -3.91976325      -2.64561999
H        1.15027201       4.97526597       6.49451015  T       0.37519355       0.74837117      -0.53728435       1.41432220      -0.25767852      -2.05854431
H       -0.36072234       5.02914500       5.17147047  T       0.52686557      -0.68035718      -0.56732698       1.08967174       0.15388234       1.88451850
C        0.22918653       6.95464238       5.96744426  T       3.05285125      -2.00342935       1.78285663       1.51040800       0.09759184      -3.89608977
H       -0.71552272       7.14241998       5.47546388  T       0.68447727      -0.50686437      -0.51815067      -0.61524286       0.99556252      -0.06232093
H        1.09500533       7.40222552       5.41735286  T      -0.20154373       0.06510393      -0.43559174      -0.69544517      -0.14871955       0.03192921
C        0.34220567       6.97464385       7.35295542  T      -1.78032633      -1.51652527      -0.80370283       8.78766963      -7.33409719      -4.76074686
H        0.24989641       7.69620790       7.79252708  T      -0.29911652       0.29521788       0.16874514      -4.01263345      13.69192002       6.83028053
H        1.75783600       7.13568024       7.73715149  T      -0.58634122       0.75544332       0.53031356      -3.58892544      -1.51422602      -2.09017032
C       -0.24164526       5.69059234       7.63484814  T       0.97729198       1.72777531       2.98138670      -4.13733856      -3.28076467       2.08291635
H       -0.66453210       4.70903748       7.11276957  T      -0.10247227       0.37380030      -0.31952995       1.06002767       0.49706943       0.46132734
H       -1.28945569       5.92648906       7.55123722  T       0.08645409       0.18460291      -0.05258914      -1.20388886       1.02805060       1.11434394
C        0.25826094       5.37761690       9.13772794  T       0.40642539       2.19132051      -1.23160535       0.73167662       1.10226856      -1.26684473
H       -0.37219315       4.72261479       9.79259659  T      -0.23848411       0.54777172      -0.36467714       0.46991727       0.12210558      -0.48330213
H        1.35185601       5.08212664       9.06932139  T      -0.06668212       0.38641589       0.29577677      -0.92496437       0.13300689       0.25749126
C        0.13519674       6.87727071       9.48668915  T      -1.19512115      -2.21346380       1.58804634       0.69873864       0.02100744       3.17257999
H        1.09517516       7.57083101       9.35876250  T      -0.36274469      -0.40402804      -1.36969421      -1.57027722      -1.75972549       1.98695042
H       -0.65561339       7.11757409      10.22262224  T       0.18090026       0.78426751       0.31852856       0.68833771       0.37235653      -0.55611727
