50
Lattice="10.0 0.0 0.0 5.0 8.660254037844386 0.0 0.0 0.0 21.66" Properties=species:S:1:pos:R:3:move_mask:L:1:momenta:R:3:forces:R:3 energy=-344.99839377021414 free_energy=-344.99839377021414 stress="-0.0034458766597739326 -0.003489881692854039 2.849293367349948e-05 -0.003489881692854039 -0.004179103495638326 -5.526865128346804e-05 2.849293367349948e-05 -5.526865128346804e-05 5.278663518047367e-05" pbc="T T F"
B        0.00000000       0.00000000       0.00000000  F       0.00000000       0.00000000       0.00000000     -11.61385642      -7.37416882       0.00004414
N        0.83333333       0.83333333       0.00000000  F       0.00000000       0.00000000       0.00000000      11.61950804       7.37347351      -0.00048196
B        1.25000000       2.16506351       0.00000000  F       0.00000000       0.00000000       0.00000000     -11.61547607      -7.37960889      -0.00163659
N        2.08333333       2.99839684       0.00000000  F       0.00000000       0.00000000       0.00000000      11.61247631       7.38600141       0.00437658
B        2.50000000       4.33012702       0.00000000  F       0.00000000       0.00000000       0.00000000     -11.60853724      -7.38731476      -0.00538921
N        3.33333333       5.16346035       0.00000000  F       0.00000000       0.00000000       0.00000000      11.61118527       7.38273858       0.00228082
B        3.75000000       6.49519053       0.00000000  F       0.00000000       0.00000000       0.00000000     -11.60922148      -7.38037278      -0.00178337
N        4.58333333       7.32852386       0.00000000  F       0.00000000       0.00000000       0.00000000      11.61867564       7.37439917       0.00000614
B        2.50000000       0.00000000       0.00000000  F       0.00000000       0.00000000       0.00000000     -11.63385233      -7.38069319      -0.01443176
N        3.33333333       0.83333333       0.00000000  F       0.00000000       0.00000000       0.00000000      11.62207056       7.37987436       0.00602862
B        3.75000000       2.16506351       0.00000000  F       0.00000000       0.00000000       0.00000000     -11.61724077      -7.37368281      -0.00522173
N        4.58333333       2.99839684       0.00000000  F       0.00000000       0.00000000       0.00000000      11.61608808       7.37354438       0.00210833
B        5.00000000       4.33012702       0.00000000  F       0.00000000       0.00000000       0.00000000     -11.61412750      -7.37347363      -0.00026688
N        5.83333333       5.16346035       0.00000000  F       0.00000000       0.00000000       0.00000000      11.62227699       7.37640510       0.00116158
B        6.25000000       6.49519053       0.00000000  F       0.00000000       0.00000000       0.00000000     -11.62097922      -7.37867357      -0.00390747
N        7.08333333       7.32852386       0.00000000  F       0.00000000       0.00000000       0.00000000      11.62460981       7.37818498       0.00544156
B        5.00000000       0.00000000       0.00000000  F       0.00000000       0.00000000       0.00000000     -11.62329473      -7.39013535      -0.02711738
N        5.83333333       0.83333333       0.00000000  F       0.00000000       0.00000000       0.00000000      11.61589493       7.38212762       0.00821355
B        6.25000000       2.16506351       0.00000000  F       0.00000000       0.00000000       0.00000000     -11.61346019      -7.37418678      -0.00419823
N        7.08333333       2.99839684       0.00000000  F       0.00000000       0.00000000       0.00000000      11.61575034       7.37773384      -0.00026860
B        7.50000000       4.33012702       0.00000000  F       0.00000000       0.00000000       0.00000000     -11.62016347      -7.38138107      -0.00460133
N        8.33333333       5.16346035       0.00000000  F       0.00000000       0.00000000       0.00000000      11.62259220       7.39378228       0.00846909
B        8.75000000       6.49519053       0.00000000  F       0.00000000       0.00000000       0.00000000     -11.63390382      -7.40387299      -0.02122834
N        9.58333333       7.32852386       0.00000000  F       0.00000000       0.00000000       0.00000000      11.62067978       7.40104302       0.01178726
B        7.50000000       0.00000000       0.00000000  F       0.00000000       0.00000000       0.00000000     -11.60520490      -7.38017365      -0.00666517
N        8.33333333       0.83333333       0.00000000  F       0.00000000       0.00000000       0.00000000      11.61265464       7.37594730       0.00132081
B        8.75000000       2.16506351       0.00000000  F       0.00000000       0.00000000       0.00000000     -11.61478501      -7.37695933      -0.00115227
N        9.58333333       2.99839684       0.00000000  F       0.00000000       0.00000000       0.00000000      11.61645846       7.39082312       0.00206435
B       10.00000000       4.33012702       0.00000000  F       0.00000000       0.00000000       0.00000000     -11.62024776      -7.40156470      -0.01139283
N       10.83333333       5.16346035       0.00000000  F       0.00000000       0.00000000       0.00000000      11.60817834       7.40515820       0.01051446
B       11.25000000       6.49519053       0.00000000  F       0.00000000       0.00000000       0.00000000     -11.60613377      -7.40658037      -0.01848532
N       12.08333333       7.32852386       0.00000000  F       0.00000000       0.00000000       0.00000000      11.60768789       7.39122017       0.00685683
C        1.78587707       2.44650198       6.99030968  T      -0.57321634       0.00851693       0.00954612      -0.37725347       0.52912525      -0.67465616
H        1.06471732       1.99031825       6.31253389  T      -0.30659316       0.17803087       0.15680702      -0.23000739      -0.79685666       0.06798622
H        1.96640573       2.08012858       7.99400609  T       0.30888259      -0.06985151      -0.08316405       0.36544032       0.00497754      -0.00702382
C        2.20184714       3.65734236       6.35062963  T      -1.08206167      -0.06294763      -0.19585012       0.25597235       0.67195048       0.60229838
H        2.88473666       4.20389568       7.03611189  T      -0.05564667       0.10557112      -0.05016923      -0.36834950       0.19066494      -0.32252830
H        2.77260429       3.53053573       5.42849284  T      -0.05925912      -0.01601831       0.01619271       0.44581876      -0.30528041      -0.09239725
C        0.92608425       4.40071548       5.80210450  T       0.38429455       0.22729219       0.00883879      -2.33562141      -0.52475470       0.05225756
H        0.12666984       4.18779908       6.56289796  T      -0.01800996       0.19907674      -0.02148783       0.39113799       0.13887306      -0.37446482
H        0.62011565       3.84837629       4.88887245  T       0.15537401      -0.06725007       0.05706877       0.12137870      -0.05341484       0.26822164
C        0.82460416       5.87448309       5.44834275  T       0.30824138       1.03755422      -0.32574460       2.34946774       1.12990416      -0.06351209
H        1.44142693       6.31741015       6.25930356  T       0.07691527      -0.22908248       0.01105098      -0.14016063       0.36794048      -0.33551297
H        1.37037238       6.02861834       4.48136878  T      -0.00069065      -0.08667118       0.02551053      -0.21256314      -0.04793135       0.53081301
C       -0.47645017       6.77687286       5.32409170  T       0.25260489       0.74864412       0.12988157       0.09072645      -0.40485307      -0.40520556
H       -1.10429646       6.45375969       6.13770205  T      -0.04396745      -0.07192005       0.00546913      -0.70010995      -0.27038501       0.39463047
H       -0.89393704       6.57225364       4.31443878  T      -0.16372198      -0.01648767       0.03012849      -0.47618849      -0.49039523       0.06566077
C       -0.49483726       8.17954628       5.11881765  T      -0.22911570       0.27397120       0.84656915       1.44485901      -0.83859048       0.17203946
H        0.23579540       8.47226395       4.35963035  T      -0.03229969      -0.00074657      -0.15479159      -0.15025204       0.30947358       0.03799605
H       -1.00171966       8.87495600       5.75200372  T      -0.05088280       0.23295603       0.12213081      -0.47059791       0.38993786       0.14095176
