50
Lattice="10.0 0.0 0.0 5.0 8.660254037844386 0.0 0.0 0.0 21.66" Properties=species:S:1:pos:R:3:move_mask:L:1:momenta:R:3:forces:R:3 energy=-340.38855668444836 free_energy=-340.38855668444836 stress="-0.0035447510096876696 -0.003435105637192525 6.312438623755758e-05 -0.003435105637192525 -0.004399793216477474 -0.00011445125403031805 6.312438623755758e-05 -0.00011445125403031805 0.00023300781956226885" pbc="T T F"
B        0.00000000       0.00000000       0.00000000  F       0.00000000       0.00000000       0.00000000     -11.61399276      -7.37196635      -0.00012777
N        0.83333333       0.83333333       0.00000000  F       0.00000000       0.00000000       0.00000000      11.61471622       7.37253096       0.00209924
B        1.25000000       2.16506351       0.00000000  F       0.00000000       0.00000000       0.00000000     -11.61491495      -7.37352434      -0.00236742
N        2.08333333       2.99839684       0.00000000  F       0.00000000       0.00000000       0.00000000      11.61390100       7.37298624       0.00288840
B        2.50000000       4.33012702       0.00000000  F       0.00000000       0.00000000       0.00000000     -11.61360688      -7.37195690      -0.00121161
N        3.33333333       5.16346035       0.00000000  F       0.00000000       0.00000000       0.00000000      11.61388689       7.37214107      -0.00002568
B        3.75000000       6.49519053       0.00000000  F       0.00000000       0.00000000       0.00000000     -11.61383312      -7.37170405      -0.00001173
N        4.58333333       7.32852386       0.00000000  F       0.00000000       0.00000000       0.00000000      11.61394929       7.37174934      -0.00000560
B        2.50000000       0.00000000       0.00000000  F       0.00000000       0.00000000       0.00000000     -11.61404573      -7.37310597      -0.00214236
N        3.33333333       0.83333333       0.00000000  F       0.00000000       0.00000000       0.00000000      11.61277254       7.37193672       0.00253812
B        3.75000000       2.16506351       0.00000000  F       0.00000000       0.00000000       0.00000000     -11.61352691      -7.37165190      -0.00047354
N        4.58333333       2.99839684       0.00000000  F       0.00000000       0.00000000       0.00000000      11.61387042       7.37186222      -0.00000196
B        5.00000000       4.33012702       0.00000000  F       0.00000000       0.00000000       0.00000000     -11.61373378      -7.37165812      -0.00001487
N        5.83333333       5.16346035       0.00000000  F       0.00000000       0.00000000       0.00000000      11.61387945       7.37159847      -0.00000139
B        6.25000000       6.49519053       0.00000000  F       0.00000000       0.00000000       0.00000000     -11.61394424      -7.37178756      -0.00001847
N        7.08333333       7.32852386       0.00000000  F       0.00000000       0.00000000       0.00000000      11.61399107       7.37286584       0.00033054
B        5.00000000       0.00000000       0.00000000  F       0.00000000       0.00000000       0.00000000     -11.61360779      -7.37178851      -0.00002530
N        5.83333333       0.83333333       0.00000000  F       0.00000000       0.00000000       0.00000000      11.61382856       7.37168880       0.00000294
B        6.25000000       2.16506351       0.00000000  F       0.00000000       0.00000000       0.00000000     -11.61381317      -7.37167863      -0.00000129
N        7.08333333       2.99839684       0.00000000  F       0.00000000       0.00000000       0.00000000      11.61391700       7.37164746      -0.00000144
B        7.50000000       4.33012702       0.00000000  F       0.00000000       0.00000000       0.00000000     -11.61389444      -7.37168286      -0.00000216
N        8.33333333       5.16346035       0.00000000  F       0.00000000       0.00000000       0.00000000      11.61399556       7.37167114      -0.00001358
B        8.75000000       6.49519053       0.00000000  F       0.00000000       0.00000000       0.00000000     -11.61376851      -7.37176332      -0.00002317
N        9.58333333       7.32852386       0.00000000  F       0.00000000       0.00000000       0.00000000      11.61376911       7.37178410       0.00001356
B        7.50000000       0.00000000       0.00000000  F       0.00000000       0.00000000       0.00000000     -11.61387947      -7.37165340       0.00000020
N        8.33333333       0.83333333       0.00000000  F       0.00000000       0.00000000       0.00000000      11.61392751       7.37167447      -0.00000375
B        8.75000000       2.16506351       0.00000000  F       0.00000000       0.00000000       0.00000000     -11.61402813      -7.37196790      -0.00009772
N        9.58333333       2.99839684       0.00000000  F       0.00000000       0.00000000       0.00000000      11.61475160       7.37226838       0.00176054
B       10.00000000       4.33012702       0.00000000  F       0.00000000       0.00000000       0.00000000     -11.61484522      -7.37230886      -0.00118324
N       10.83333333       5.16346035       0.00000000  F       0.00000000       0.00000000       0.00000000      11.61438849       7.37161109       0.00194996
B       11.25000000       6.49519053       0.00000000  F       0.00000000       0.00000000       0.00000000     -11.61370822      -7.37169309      -0.00006460
N       12.08333333       7.32852386       0.00000000  F       0.00000000       0.00000000       0.00000000      11.61392057       7.37175644      -0.00000564
C        1.87503215       5.31703367       9.25377819  T       0.73713866      -1.04110470      -0.36500910       1.01525457       5.10863930       4.59365556
H        2.39916965       5.63662493      10.26886258  T       0.02587578       0.34818575       0.00638941      -1.75860120       0.08807048      -1.86379665
H        1.34696236       6.01029137       8.61502886  T       0.55875682      -0.09780004      -0.58098436      -0.31769106       0.14264918       0.02547571
C        2.34405378       4.12625707       8.89158870  T      -2.41761443       1.33881806       1.31798571       3.87166559      -0.61119358      -1.70376232
H        2.87321589       4.31799549       7.93910738  T       0.32909810       0.30403628       0.24457731       1.67356435       0.18323833       0.10406791
H        3.14976609       3.87886887       9.65698832  T       0.04735669       0.01383697      -0.10965693      -1.07455849      -1.17611405      -0.86319537
C        1.23082141       3.52475343       8.20015058  T       0.45951140      -0.03354580       1.06507492      -2.76176227      -2.52004095      -0.06467526
H        0.63790732       4.22894456       7.55998879  T      -1.04774140      -0.32145972       0.88351294       0.27031097      -0.12112683       0.66419957
H        0.58525827       3.18268701       9.04692731  T       1.58476959      -1.45379868       0.10321167      -0.38173006       0.27771056      -0.59672272
C        1.59656911       2.36104584       7.39828226  T       2.46951445       4.04755970       1.45780902      -0.41533334      -2.16949987      -0.15003576
H        3.67127445      -0.08695026       9.62211658  T       0.47785306      -0.76750050       0.81891451       0.01932135      -0.01152875       0.01277365
H        1.53016300       1.49562542       8.15421753  T       0.20511478      -0.12384149       0.27981547      -0.09931316       0.26781254      -1.86229806
C        2.39866023       1.74224185       6.09451894  T      -1.08981162      -1.37684925       1.90701021       0.04779189      -0.33832575      -1.30843269
H        3.43358283       2.10855940       6.14235876  T      -0.10853960       0.12733853      -0.36152730      -0.25520855       0.28452364      -0.23580922
H        2.26664095       0.76972133       5.38876139  T      -0.86609982      -0.13586659      -0.31699676       0.27784241       1.47050417       2.38809371
C        1.19898608       2.55011514       5.81951589  T       1.89943435      -0.93309618      -4.31222880       0.74230584      -0.19492195       0.99747470
H        0.32559817       1.92409961       5.70247400  T       0.28626093       0.17968626      -0.48715451      -0.84456984      -0.01353542      -0.68115109
H        1.27371443       3.54378120       5.29795445  T      -0.03056264       0.20651607       0.60927294      -0.00961097      -0.66674205       0.54037911
