50
Lattice="10.0 0.0 0.0 5.0 8.660254037844386 0.0 0.0 0.0 21.66" Properties=species:S:1:pos:R:3:move_mask:L:1:momenta:R:3:forces:R:3 energy=-343.50791658318457 free_energy=-343.50791658318457 stress="-0.0032469410232949633 -0.0033277881318564263 8.544551586647068e-05 -0.0033277881318564263 -0.004221811823186532 5.9202949925109045e-05 8.544551586647068e-05 5.9202949925109045e-05 -5.1347189181466975e-05" pbc="T T F"
B        0.00000000       0.00000000       0.00000000  F       0.00000000       0.00000000       0.00000000     -11.63420650      -7.40425865      -0.03449741
N        0.83333333       0.83333333       0.00000000  F       0.00000000       0.00000000       0.00000000      11.64260080       7.40313040       0.01655969
B        1.25000000       2.16506351       0.00000000  F       0.00000000       0.00000000       0.00000000     -11.62244939      -7.40677542      -0.02595520
N        2.08333333       2.99839684       0.00000000  F       0.00000000       0.00000000       0.00000000      11.62405055       7.39608849       0.00952942
B        2.50000000       4.33012702       0.00000000  F       0.00000000       0.00000000       0.00000000     -11.61987571      -7.39482854      -0.01122984
N        3.33333333       5.16346035       0.00000000  F       0.00000000       0.00000000       0.00000000      11.61718848       7.39651645       0.00670151
B        3.75000000       6.49519053       0.00000000  F       0.00000000       0.00000000       0.00000000     -11.62799867      -7.39336501      -0.02232581
N        4.58333333       7.32852386       0.00000000  F       0.00000000       0.00000000       0.00000000      11.62460163       7.39661063       0.01964436
B        2.50000000       0.00000000       0.00000000  F       0.00000000       0.00000000       0.00000000     -11.59594444      -7.38931914      -0.01516966
N        3.33333333       0.83333333       0.00000000  F       0.00000000       0.00000000       0.00000000      11.62254986       7.37914289       0.00243478
B        3.75000000       2.16506351       0.00000000  F       0.00000000       0.00000000       0.00000000     -11.60698871      -7.38455315      -0.00329599
N        4.58333333       2.99839684       0.00000000  F       0.00000000       0.00000000       0.00000000      11.61599217       7.38633310       0.00317736
B        5.00000000       4.33012702       0.00000000  F       0.00000000       0.00000000       0.00000000     -11.61698699      -7.39229230      -0.01995522
N        5.83333333       5.16346035       0.00000000  F       0.00000000       0.00000000       0.00000000      11.61926898       7.39121251       0.00823129
B        6.25000000       6.49519053       0.00000000  F       0.00000000       0.00000000       0.00000000     -11.60514313      -7.38929501      -0.01520926
N        7.08333333       7.32852386       0.00000000  F       0.00000000       0.00000000       0.00000000      11.61849279       7.37153256       0.00538267
B        5.00000000       0.00000000       0.00000000  F       0.00000000       0.00000000       0.00000000     -11.61284334      -7.37501206       0.00021380
N        5.83333333       0.83333333       0.00000000  F       0.00000000       0.00000000       0.00000000      11.61290225       7.37486283       0.00142460
B        6.25000000       2.16506351       0.00000000  F       0.00000000       0.00000000       0.00000000     -11.63281275      -7.38094557      -0.00951835
N        7.08333333       2.99839684       0.00000000  F       0.00000000       0.00000000       0.00000000      11.61805395       7.38536910       0.00809877
B        7.50000000       4.33012702       0.00000000  F       0.00000000       0.00000000       0.00000000     -11.62192398      -7.37544497      -0.00865451
N        8.33333333       5.16346035       0.00000000  F       0.00000000       0.00000000       0.00000000      11.61846420       7.38240523       0.00077298
B        8.75000000       6.49519053       0.00000000  F       0.00000000       0.00000000       0.00000000     -11.61153556      -7.37440082      -0.00000756
N        9.58333333       7.32852386       0.00000000  F       0.00000000       0.00000000       0.00000000      11.61829668       7.37261294      -0.00078206
B        7.50000000       0.00000000       0.00000000  F       0.00000000       0.00000000       0.00000000     -11.64951430      -7.39607566      -0.02425007
N        8.33333333       0.83333333       0.00000000  F       0.00000000       0.00000000       0.00000000      11.63443979       7.41000486       0.01570306
B        8.75000000       2.16506351       0.00000000  F       0.00000000       0.00000000       0.00000000     -11.66574440      -7.40414983      -0.02938593
N        9.58333333       2.99839684       0.00000000  F       0.00000000       0.00000000       0.00000000      11.63579138       7.41017706       0.00747761
B       10.00000000       4.33012702       0.00000000  F       0.00000000       0.00000000       0.00000000     -11.62674801      -7.38150315      -0.02181460
N       10.83333333       5.16346035       0.00000000  F       0.00000000       0.00000000       0.00000000      11.62046925       7.38181273       0.00313376
B       11.25000000       6.49519053       0.00000000  F       0.00000000       0.00000000       0.00000000     -11.61879959      -7.37893036      -0.00386458
N       12.08333333       7.32852386       0.00000000  F       0.00000000       0.00000000       0.00000000      11.62170918       7.38750800       0.00473801
C       -0.37930128       1.46973972       4.44850479  T       0.02396151      -1.12107819       0.72880710       1.90342106       1.63279919       2.14566507
H       -1.22015742       2.19540708       4.32593365  T      -0.18916071      -0.54528521       0.07134949       0.57717901      -0.82299899      -0.17836504
H       -0.06729974       0.62408945       3.86749285  T       0.17109439      -0.06745806       0.27632345      -0.65149387      -0.33442602      -0.74388839
C        0.70516045       1.81750730       5.42883745  T      -0.33474078      -1.51778499      -1.74329961       0.43632724      -1.91129073       0.49932328
H        1.43690844       0.93675037       5.45130657  T       0.01038807      -0.03719342       0.68990378      -0.92481687       0.83326279      -0.04987691
H        0.36786120       1.95543292       6.46226053  T      -0.55176962       0.23300230      -0.25359082      -0.58339565      -0.84808776       0.22084095
C        1.46622699       3.16914618       5.40582935  T       0.14184513       0.19237260       2.03383142      -1.08208607       3.03642985      -1.76934135
H        1.78957490       3.24400089       4.39383795  T       0.49734714      -0.40436171       0.20738867       0.23815308       0.16236930      -1.39045124
H        0.52301477       3.77813409       5.50460058  T       0.02442482       0.18509393      -0.34295172       0.91484926       0.43848441      -0.08740871
C        2.61955705       3.87968858       6.17327368  T      -0.94416838      -0.01268188      -0.64929643       0.26372755      -2.43054242       2.41090554
H        2.23225664       3.88997910       7.18515383  T       0.32644257      -0.07745783      -0.05296632      -0.70458217       0.45033818       0.69994035
H        3.38999412       3.12782296       6.34084642  T      -0.51280497       0.16612901       0.01815117       0.31670698      -0.96313941      -0.60068501
C        3.59808111       5.07103191       6.22569067  T       1.32481799       0.51132759       1.20169311       1.62430668       0.31261372      -0.60685798
H        3.19386083       6.03737923       6.49783990  T       0.06334176      -0.05558480       0.26401077      -0.57600603       0.50594075      -0.20250524
H        4.18741075       4.90651339       7.19478992  T       0.51796220      -0.16249088      -0.34174914      -0.43862650      -0.06897355      -0.78174383
C        4.64158093       5.29243220       5.22264096  T      -0.94411621       1.57674923      -1.28222701      -1.90416744       1.25958541       0.07997460
H        5.63400524       4.90222776       5.22263959  T      -0.22724269      -0.25224636       0.04035640       0.47776791      -0.63938869       0.21468137
H        4.40451655       6.07390817       4.45652996  T       0.21750101       0.43295255       0.21331175       0.11737938      -0.61714621       0.27248492
