50
Lattice="10.0 0.0 0.0 5.0 8.660254037844386 0.0 0.0 0.0 21.66" Properties=species:S:1:pos:R:3:move_mask:L:1:momenta:R:3:forces:R:3 energy=-338.8081543189244 free_energy=-338.8081543189244 stress="-0.003660904493665812 -0.0031865594754621335 3.291315671241428e-05 -0.0031865594754621335 -0.004262100970485405 4.990711440059879e-05 3.291315671241428e-05 4.990711440059879e-05 -9.656773187311312e-05" pbc="T T F"
B        0.00000000       0.00000000       0.00000000  F       0.00000000       0.00000000       0.00000000     -11.61584952      -7.37258920      -0.00009663
N        0.83333333       0.83333333       0.00000000  F       0.00000000       0.00000000       0.00000000      11.61554109       7.37635997       0.00048556
B        1.25000000       2.16506351       0.00000000  F       0.00000000       0.00000000       0.00000000     -11.61655437      -7.37732304      -0.00373967
N        2.08333333       2.99839684       0.00000000  F       0.00000000       0.00000000       0.00000000      11.61693075       7.38035838       0.00606288
B        2.50000000       4.33012702       0.00000000  F       0.00000000       0.00000000       0.00000000     -11.61171412      -7.37924739      -0.01152010
N        3.33333333       5.16346035       0.00000000  F       0.00000000       0.00000000       0.00000000      11.60945488       7.37680271       0.00324671
B        3.75000000       6.49519053       0.00000000  F       0.00000000       0.00000000       0.00000000     -11.61113723      -7.37476030      -0.00420410
N        4.58333333       7.32852386       0.00000000  F       0.00000000       0.00000000       0.00000000      11.61429164       7.37290762      -0.00024861
B        2.50000000       0.00000000       0.00000000  F       0.00000000       0.00000000       0.00000000     -11.61910474      -7.37580592      -0.00528995
N        3.33333333       0.83333333       0.00000000  F       0.00000000       0.00000000       0.00000000      11.61363434       7.37720779       0.00224390
B        3.75000000       2.16506351       0.00000000  F       0.00000000       0.00000000       0.00000000     -11.61223304      -7.37444484      -0.00214016
N        4.58333333       2.99839684       0.00000000  F       0.00000000       0.00000000       0.00000000      11.61345444       7.37411878       0.00149680
B        5.00000000       4.33012702       0.00000000  F       0.00000000       0.00000000       0.00000000     -11.61381160      -7.37766380      -0.00164711
N        5.83333333       5.16346035       0.00000000  F       0.00000000       0.00000000       0.00000000      11.61493740       7.37952747       0.00534396
B        6.25000000       6.49519053       0.00000000  F       0.00000000       0.00000000       0.00000000     -11.63150991      -7.38056779      -0.01358577
N        7.08333333       7.32852386       0.00000000  F       0.00000000       0.00000000       0.00000000      11.61625548       7.38659149       0.01012320
B        5.00000000       0.00000000       0.00000000  F       0.00000000       0.00000000       0.00000000     -11.61203871      -7.37516327      -0.00424086
N        5.83333333       0.83333333       0.00000000  F       0.00000000       0.00000000       0.00000000      11.61274427       7.37271073      -0.00047348
B        6.25000000       2.16506351       0.00000000  F       0.00000000       0.00000000       0.00000000     -11.61543940      -7.37521783      -0.00109763
N        7.08333333       2.99839684       0.00000000  F       0.00000000       0.00000000       0.00000000      11.61754051       7.38435021       0.00235464
B        7.50000000       4.33012702       0.00000000  F       0.00000000       0.00000000       0.00000000     -11.63573282      -7.39831159      -0.01901388
N        8.33333333       5.16346035       0.00000000  F       0.00000000       0.00000000       0.00000000      11.62889949       7.39984593       0.00983599
B        8.75000000       6.49519053       0.00000000  F       0.00000000       0.00000000       0.00000000     -11.62720722      -7.39174610      -0.02360986
N        9.58333333       7.32852386       0.00000000  F       0.00000000       0.00000000       0.00000000      11.62234671       7.38472558       0.00701074
B        7.50000000       0.00000000       0.00000000  F       0.00000000       0.00000000       0.00000000     -11.61261041      -7.37298363      -0.00015151
N        8.33333333       0.83333333       0.00000000  F       0.00000000       0.00000000       0.00000000      11.61526987       7.37300711      -0.00024729
B        8.75000000       2.16506351       0.00000000  F       0.00000000       0.00000000       0.00000000     -11.61524428      -7.37876098      -0.00306835
N        9.58333333       2.99839684       0.00000000  F       0.00000000       0.00000000       0.00000000      11.61968104       7.37631904       0.00328853
B       10.00000000       4.33012702       0.00000000  F       0.00000000       0.00000000       0.00000000     -11.61331620      -7.39086953      -0.02508523
N       10.83333333       5.16346035       0.00000000  F       0.00000000       0.00000000       0.00000000      11.62548265       7.38265824       0.00824114
B       11.25000000       6.49519053       0.00000000  F       0.00000000       0.00000000       0.00000000     -11.60887825      -7.37782280      -0.01673068
N       12.08333333       7.32852386       0.00000000  F       0.00000000       0.00000000       0.00000000      11.61599033       7.37285829       0.00323193
C       -1.39473064       5.70607202       4.86372863  T      -1.66459238       2.18762268       0.59327236      -1.54167683      -0.40161375      -0.17914862
H       -1.73556085       6.63126822       4.41261448  T      -0.20691644       0.14545855      -0.12743407      -0.16286309      -0.13107448      -0.76626160
H       -1.85844188       4.69105946       4.66111927  T      -0.20148664       0.17089299      -0.50611545       0.70070936       1.22637353      -0.03109839
C       -0.65613222       5.91100919       6.02311553  T      -2.28462137      -0.44474031      -2.39996880       4.56767733       0.99711221      -3.10855341
H        0.09976402       6.81122652       5.84045646  T      -0.94566065       0.82652260       0.78748234      -1.67092362      -1.27038749       0.69412650
H       -1.25261250       5.90071773       6.83476627  T       0.36896321       0.06781208      -0.25708497      -2.60110234       1.28913549       2.93486690
C        0.19860207       4.70284028       6.38325480  T      -0.06185584       0.57202771       1.71534175      -6.36616608      -2.45479969       0.63714365
H       -0.38082147       3.79731142       5.78706721  T      -0.23922324      -0.37448825       1.62127403       0.86883574       1.34265603       1.24971904
H       -0.05375351       4.46844365       7.46826645  T       0.49574776      -0.28631153      -0.05338156       0.16993172       0.24116248      -0.74100984
C        1.47678386       4.44570301       6.11604727  T       2.25097080      -3.20701308      -2.75555444       6.96506387       2.47082065      -5.17987781
H        2.00525131       5.08266189       5.00635024  T      -1.38910296      -2.29978591      -1.03334381      -1.53608014      -0.29443407       3.38957764
H        3.09143163       6.53975330       5.65575601  T       2.96227196       3.11794389       0.99522797       0.31046944       0.35460331      -0.08763634
C        2.51826860       3.38580652       5.92850869  T      -0.71673705       0.80048502      -0.74966164      -1.02049136      -3.37287687      -3.09479379
H        3.52244374       3.23628892       5.50734260  T      -0.27096266       0.53419908      -0.35244077       0.37158586       1.25275831       0.65520865
H        1.85486361       2.69962855       5.31733626  T       0.54996064      -0.82422476      -0.50170360       0.71730387      -0.52597382       0.54544425
C        2.11965055       3.55499722       7.26380779  T      -1.58418882      -0.85134524       2.15588785      -0.31818723       1.40119012      -0.29590502
H        2.63385017       4.31084330       7.90019807  T      -0.22253617      -0.20669883       0.01188297       0.06175768      -0.98519615       0.76631447
H        1.21631515       2.92473551       7.32392449  T       0.15007412      -0.91645628       0.74956553       0.48408276      -1.13652715       2.68510865
