50
Lattice="10.0 0.0 0.0 5.0 8.660254037844386 0.0 0.0 0.0 21.66" Properties=species:S:1:pos:R:3:move_mask:L:1:momenta:R:3:forces:R:3 energy=-338.46003855371765 free_energy=-338.46003855371765 stress="-0.0031868598121169802 -0.003493202479608242 -0.0003177655734353751 -0.003493202479608242 -0.004224390939146229 3.080114195304321e-05 -0.0003177655734353751 3.080114195304321e-05 -4.003406243016847e-05" pbc="T T F"
B        0.00000000       0.00000000       0.00000000  F       0.00000000       0.00000000       0.00000000     -11.61423797      -7.37262705      -0.00023684
N        0.83333333       0.83333333       0.00000000  F       0.00000000       0.00000000       0.00000000      11.61431879       7.37894624       0.00222755
B        1.25000000       2.16506351       0.00000000  F       0.00000000       0.00000000       0.00000000     -11.61600294      -7.38181174      -0.00515830
N        2.08333333       2.99839684       0.00000000  F       0.00000000       0.00000000       0.00000000      11.61198801       7.38256727       0.00360911
B        2.50000000       4.33012702       0.00000000  F       0.00000000       0.00000000       0.00000000     -11.61377171      -7.37946788      -0.00440679
N        3.33333333       5.16346035       0.00000000  F       0.00000000       0.00000000       0.00000000      11.61191329       7.37461772       0.00175718
B        3.75000000       6.49519053       0.00000000  F       0.00000000       0.00000000       0.00000000     -11.61341361      -7.37253890      -0.00019937
N        4.58333333       7.32852386       0.00000000  F       0.00000000       0.00000000       0.00000000      11.61421050       7.37230404      -0.00006976
B        2.50000000       0.00000000       0.00000000  F       0.00000000       0.00000000       0.00000000     -11.61322990      -7.37232936      -0.00030513
N        3.33333333       0.83333333       0.00000000  F       0.00000000       0.00000000       0.00000000      11.61265065       7.37501744       0.00164468
B        3.75000000       2.16506351       0.00000000  F       0.00000000       0.00000000       0.00000000     -11.61125536      -7.37560235      -0.00244718
N        4.58333333       2.99839684       0.00000000  F       0.00000000       0.00000000       0.00000000      11.61117969       7.37326384       0.00199816
B        5.00000000       4.33012702       0.00000000  F       0.00000000       0.00000000       0.00000000     -11.61276354      -7.37235925      -0.00030269
N        5.83333333       5.16346035       0.00000000  F       0.00000000       0.00000000       0.00000000      11.61445400       7.37189762      -0.00002136
B        6.25000000       6.49519053       0.00000000  F       0.00000000       0.00000000       0.00000000     -11.61359361      -7.37153886       0.00000336
N        7.08333333       7.32852386       0.00000000  F       0.00000000       0.00000000       0.00000000      11.61400800       7.37132564      -0.00001672
B        5.00000000       0.00000000       0.00000000  F       0.00000000       0.00000000       0.00000000     -11.61366920      -7.37153288       0.00000261
N        5.83333333       0.83333333       0.00000000  F       0.00000000       0.00000000       0.00000000      11.61370251       7.37164099      -0.00006024
B        6.25000000       2.16506351       0.00000000  F       0.00000000       0.00000000       0.00000000     -11.61374179      -7.37168567       0.00001128
N        7.08333333       2.99839684       0.00000000  F       0.00000000       0.00000000       0.00000000      11.61452674       7.37161604      -0.00006079
B        7.50000000       4.33012702       0.00000000  F       0.00000000       0.00000000       0.00000000     -11.61421061      -7.37195504       0.00004603
N        8.33333333       5.16346035       0.00000000  F       0.00000000       0.00000000       0.00000000      11.61540803       7.37168905      -0.00014911
B        8.75000000       6.49519053       0.00000000  F       0.00000000       0.00000000       0.00000000     -11.61413401      -7.37198927       0.00005682
N        9.58333333       7.32852386       0.00000000  F       0.00000000       0.00000000       0.00000000      11.61432700       7.37166978      -0.00007315
B        7.50000000       0.00000000       0.00000000  F       0.00000000       0.00000000       0.00000000     -11.61385291      -7.37144055       0.00000187
N        8.33333333       0.83333333       0.00000000  F       0.00000000       0.00000000       0.00000000      11.61415730       7.37187577      -0.00005750
B        8.75000000       2.16506351       0.00000000  F       0.00000000       0.00000000       0.00000000     -11.61536811      -7.37408164      -0.00158503
N        9.58333333       2.99839684       0.00000000  F       0.00000000       0.00000000       0.00000000      11.61726505       7.37702927       0.00395731
B       10.00000000       4.33012702       0.00000000  F       0.00000000       0.00000000       0.00000000     -11.61908903      -7.37733928      -0.00479562
N       10.83333333       5.16346035       0.00000000  F       0.00000000       0.00000000       0.00000000      11.61612607       7.37490570       0.00212807
B       11.25000000       6.49519053       0.00000000  F       0.00000000       0.00000000       0.00000000     -11.61380138      -7.37281991      -0.00133111
N       12.08333333       7.32852386       0.00000000  F       0.00000000       0.00000000       0.00000000      11.61449443       7.37229710      -0.00006636
C        1.21571345       3.27319525       5.60752347  T       1.27152019       0.01436510      -0.12365035      -0.31828498      -0.04155000       3.35343502
H        2.05369890       2.35787090       6.04738106  T      -0.14266820      -0.76292365      -1.09573755      -2.85055361       2.74188538      -0.59686967
H        1.64944055       3.41262352       4.64345745  T      -0.02456900       0.12708955      -0.09695853      -0.03897078       0.54872552      -1.15235369
C        1.07498760       4.76682507       6.42613969  T      -1.22206052       0.24688260       1.31980107      -0.17769093      -5.73917006      -1.87766601
H        0.10061258       3.03893027       5.57880387  T      -0.38392939      -0.61743459       0.00593886       1.38730404      -0.60726021      -0.29682322
H        2.08041723       5.04990505       6.31463942  T      -0.53746447       0.59443511      -0.05981421       1.53086980       1.32644612       0.25588142
C        0.30626650       5.11317135       7.65367925  T       0.42553273       0.56348571      -0.73302854      -2.04047576      -3.78781190      -2.13195751
H       -0.66509953       6.08283583       7.69234852  T       0.12010211       0.23307545      -0.02465820       0.37001086      -1.24422916      -0.70895636
H       -0.56270411       4.29506042       7.97446392  T       0.50057631      -0.59633085       0.28819165       2.22077642       2.01160916      -0.42839173
C        1.31961794       5.64854931       8.57609355  T      -3.46036326      -2.73403342       2.08254252      -0.84456272       0.39876605       8.04417359
H        0.62104769       5.33073551       9.59370617  T      -0.21664730       0.33629410       0.06612125       2.72065091       0.39994262      -1.33777229
H        2.43421237       5.66098790       8.57380872  T       0.49481666      -0.25057045      -0.49414509      -0.23874711      -1.74323023      -0.75849891
C        0.55786222       6.63480175       7.69791015  T      -0.21519813      -0.62879590      -3.27513987      -3.65092101       1.10226172      -1.03874753
H       -0.36333565       7.25655848       8.02355223  T      -0.24468040      -0.29907729       0.22233416       0.65688296       0.59578968      -0.81652076
H        1.04544241       6.64422965       6.70900103  T       0.63578901       0.00081907      -0.46786677      -0.37713264       2.88571644      -1.07258571
C        1.31885923       7.21873260       8.84846904  T       2.39983796       4.85091926       1.87648662      -0.69564302       0.76544033      -0.58290655
H        0.55388756       7.56481830       9.76221790  T      -0.17855718       0.02929030       0.27276005       2.70218934      -0.21502887      -1.95360986
H        2.13364568       7.68915968       8.09674784  T      -0.22873853       0.39091920      -0.18183334      -0.35429614       0.60015353       3.10406881
