50
Lattice="10.0 0.0 0.0 5.0 8.660254037844386 0.0 0.0 0.0 21.66" Properties=species:S:1:pos:R:3:move_mask:L:1:momenta:R:3:forces:R:3 energy=-345.1312694405888 free_energy=-345.1312694405888 stress="-0.003392749162170924 -0.003331577383831409 -1.720757334809424e-05 -0.003331577383831409 -0.004134863186823442 -8.426145476721415e-06 -1.720757334809424e-05 -8.426145476721415e-06 1.831508372474992e-05" pbc="T T F"
B        0.00000000       0.00000000       0.00000000  F       0.00000000       0.00000000       0.00000000     -11.60715887      -7.38785735      -0.02605685
N        0.83333333       0.83333333       0.00000000  F       0.00000000       0.00000000       0.00000000      11.61108629       7.38700337       0.00624866
B        1.25000000       2.16506351       0.00000000  F       0.00000000       0.00000000       0.00000000     -11.60245014      -7.39408524      -0.01572315
N        2.08333333       2.99839684       0.00000000  F       0.00000000       0.00000000       0.00000000      11.64137832       7.37913272       0.00678714
B        2.50000000       4.33012702       0.00000000  F       0.00000000       0.00000000       0.00000000     -11.58128788      -7.41419510      -0.02867307
N        3.33333333       5.16346035       0.00000000  F       0.00000000       0.00000000       0.00000000      11.63321150       7.38535549       0.01070787
B        3.75000000       6.49519053       0.00000000  F       0.00000000       0.00000000       0.00000000     -11.59405153      -7.40874669      -0.02695883
N        4.58333333       7.32852386       0.00000000  F       0.00000000       0.00000000       0.00000000      11.60256704       7.39425002       0.01129614
B        2.50000000       0.00000000       0.00000000  F       0.00000000       0.00000000       0.00000000     -11.63830821      -7.36559808      -0.01961175
N        3.33333333       0.83333333       0.00000000  F       0.00000000       0.00000000       0.00000000      11.62215896       7.37111388       0.00493484
B        3.75000000       2.16506351       0.00000000  F       0.00000000       0.00000000       0.00000000     -11.61283931      -7.37150170      -0.00053543
N        4.58333333       2.99839684       0.00000000  F       0.00000000       0.00000000       0.00000000      11.61848560       7.37818460      -0.00151337
B        5.00000000       4.33012702       0.00000000  F       0.00000000       0.00000000       0.00000000     -11.61546322      -7.38345435      -0.00368220
N        5.83333333       5.16346035       0.00000000  F       0.00000000       0.00000000       0.00000000      11.61730647       7.38268434       0.01059386
B        6.25000000       6.49519053       0.00000000  F       0.00000000       0.00000000       0.00000000     -11.64807836      -7.37841279      -0.02478729
N        7.08333333       7.32852386       0.00000000  F       0.00000000       0.00000000       0.00000000      11.63905206       7.38308246       0.01002368
B        5.00000000       0.00000000       0.00000000  F       0.00000000       0.00000000       0.00000000     -11.63581417      -7.34286995      -0.03156654
N        5.83333333       0.83333333       0.00000000  F       0.00000000       0.00000000       0.00000000      11.60876610       7.35674698       0.00982729
B        6.25000000       2.16506351       0.00000000  F       0.00000000       0.00000000       0.00000000     -11.62414821      -7.37481298      -0.00844137
N        7.08333333       2.99839684       0.00000000  F       0.00000000       0.00000000       0.00000000      11.62668816       7.39442873       0.01656861
B        7.50000000       4.33012702       0.00000000  F       0.00000000       0.00000000       0.00000000     -11.67101999      -7.38234566      -0.04308343
N        8.33333333       5.16346035       0.00000000  F       0.00000000       0.00000000       0.00000000      11.63509217       7.40185873       0.02358059
B        8.75000000       6.49519053       0.00000000  F       0.00000000       0.00000000       0.00000000     -11.72894826      -7.36143578      -0.06035399
N        9.58333333       7.32852386       0.00000000  F       0.00000000       0.00000000       0.00000000      11.62718730       7.39662166       0.05005068
B        7.50000000       0.00000000       0.00000000  F       0.00000000       0.00000000       0.00000000     -11.62771438      -7.38688528      -0.03724571
N        8.33333333       0.83333333       0.00000000  F       0.00000000       0.00000000       0.00000000      11.62027377       7.39718345       0.02536217
B        8.75000000       2.16506351       0.00000000  F       0.00000000       0.00000000       0.00000000     -11.63067919      -7.40220753      -0.03591672
N        9.58333333       2.99839684       0.00000000  F       0.00000000       0.00000000       0.00000000      11.64633635       7.38842327       0.01482215
B       10.00000000       4.33012702       0.00000000  F       0.00000000       0.00000000       0.00000000     -11.61860117      -7.40291922      -0.04833826
N       10.83333333       5.16346035       0.00000000  F       0.00000000       0.00000000       0.00000000      11.65611035       7.37469304       0.01883520
B       11.25000000       6.49519053       0.00000000  F       0.00000000       0.00000000       0.00000000     -11.59327333      -7.39460830      -0.05807334
N       12.08333333       7.32852386       0.00000000  F       0.00000000       0.00000000       0.00000000      11.61485671       7.38012459       0.02757952
C        3.98694946       8.64622567       5.02629692  T      -0.40175418       0.63473044       0.14019375      -0.37015883      -0.70083003      -0.86717285
H        4.86682079       9.24010915       5.33121074  T      -0.20547839       0.16737113       0.29119311      -0.33617315      -0.09942552       0.16663785
H        3.64432068       8.67942720       3.95746815  T       0.02180850      -0.32920865       0.00983191       0.22295180       0.22202961       0.81157240
C        3.32896350       7.62256478       5.79387502  T       1.24281046      -0.07846140       1.50629683       0.59831184      -0.47404999       0.95897048
H        4.07301690       6.83052090       6.05110862  T       0.06493437      -0.10660509      -0.04178180      -0.05111251       0.20158595      -0.06541082
H        3.06493630       7.99940642       6.79605987  T       0.02405279      -0.17808314       0.10155385      -0.05236733       0.10903168       0.01256786
C        2.11369253       6.90750018       5.14075237  T       1.61255504       1.44546858       1.40119950      -1.02485270       0.56001325      -2.16493606
H        2.51302088       6.65122072       4.11526037  T       0.03432063       0.05453922       0.18739429      -0.45762011       0.33321122       0.58669909
H        1.33518411       7.70302088       5.01849600  T      -0.12677881       0.02641095       0.29939123       0.53209810      -0.23268685      -0.11109468
C        1.27144651       5.65007221       5.51522373  T       0.73493777       0.26055231      -0.69409422       1.22654176       0.90177633       0.08245296
H        1.64073551       4.88957273       4.80973562  T       0.07727482       0.05127997       0.00899883      -0.07619970      -0.37741432       0.48365835
H        1.47842859       5.43395571       6.56989509  T      -0.03133451      -0.14916939       0.08817244      -0.16263792      -0.25142755      -0.07265765
C       -0.22816266       5.81734143       5.19390640  T      -0.39621490      -0.02163095       0.67372436      -0.25192840      -0.02014083      -0.02646328
H       -0.79331394       5.07560234       5.80038560  T       0.09429247      -0.16649124      -0.00082366       0.08730892       0.27343997      -0.18036369
H       -0.64985010       6.80173727       5.45418100  T      -0.01108358       0.00545150      -0.10444451       0.10570920       0.04399805       0.35775875
C       -0.60329123       5.66407458       3.82168773  T      -0.76172607      -0.28113956       0.77435033      -0.35734184      -1.33524474      -0.20037847
H       -0.36956138       6.33329692       2.99037197  T      -0.14376785      -0.12016419      -0.02802657       0.09076218      -0.00180580       0.43972123
H       -1.10025823       4.68204143       3.58573294  T      -0.20792982      -0.39735053       0.23188207       0.28598779       0.84898825       0.01178143
