50
Lattice="10.0 0.0 0.0 5.0 8.660254037844386 0.0 0.0 0.0 21.66" Properties=species:S:1:pos:R:3:move_mask:L:1:momenta:R:3:forces:R:3 energy=-342.82540015960353 free_energy=-342.82540015960353 stress="-0.0033321946293268815 -0.003352653495005428 0.00011362223944030191 -0.003352653495005428 -0.004250277148171131 1.989037782298116e-05 0.00011362223944030191 1.989037782298116e-05 5.734710919942015e-05" pbc="T T F"
B        0.00000000       0.00000000       0.00000000  F       0.00000000       0.00000000       0.00000000     -11.61211260      -7.37309794       0.00001830
N        0.83333333       0.83333333       0.00000000  F       0.00000000       0.00000000       0.00000000      11.61607428       7.37550888      -0.00010587
B        1.25000000       2.16506351       0.00000000  F       0.00000000       0.00000000       0.00000000     -11.60809591      -7.38745754      -0.01035297
N        2.08333333       2.99839684       0.00000000  F       0.00000000       0.00000000       0.00000000      11.61902544       7.37435941       0.01010891
B        2.50000000       4.33012702       0.00000000  F       0.00000000       0.00000000       0.00000000     -11.58567871      -7.38881892      -0.02207872
N        3.33333333       5.16346035       0.00000000  F       0.00000000       0.00000000       0.00000000      11.61524971       7.36988657       0.00562925
B        3.75000000       6.49519053       0.00000000  F       0.00000000       0.00000000       0.00000000     -11.60649034      -7.37077081      -0.00286620
N        4.58333333       7.32852386       0.00000000  F       0.00000000       0.00000000       0.00000000      11.61528724       7.37117271      -0.00039349
B        2.50000000       0.00000000       0.00000000  F       0.00000000       0.00000000       0.00000000     -11.61497664      -7.37124982      -0.00001035
N        3.33333333       0.83333333       0.00000000  F       0.00000000       0.00000000       0.00000000      11.61498817       7.37377039      -0.00064685
B        3.75000000       2.16506351       0.00000000  F       0.00000000       0.00000000       0.00000000     -11.61215374      -7.37301954      -0.00028903
N        4.58333333       2.99839684       0.00000000  F       0.00000000       0.00000000       0.00000000      11.61875559       7.36998539      -0.00048639
B        5.00000000       4.33012702       0.00000000  F       0.00000000       0.00000000       0.00000000     -11.61133931      -7.37266088       0.00022277
N        5.83333333       5.16346035       0.00000000  F       0.00000000       0.00000000       0.00000000      11.61433211       7.37237188      -0.00012836
B        6.25000000       6.49519053       0.00000000  F       0.00000000       0.00000000       0.00000000     -11.61859459      -7.37217923      -0.00144633
N        7.08333333       7.32852386       0.00000000  F       0.00000000       0.00000000       0.00000000      11.61085634       7.37490592       0.00240226
B        5.00000000       0.00000000       0.00000000  F       0.00000000       0.00000000       0.00000000     -11.61440010      -7.36831122      -0.00392927
N        5.83333333       0.83333333       0.00000000  F       0.00000000       0.00000000       0.00000000      11.61213303       7.37365274      -0.00010307
B        6.25000000       2.16506351       0.00000000  F       0.00000000       0.00000000       0.00000000     -11.61296761      -7.37185701      -0.00008757
N        7.08333333       2.99839684       0.00000000  F       0.00000000       0.00000000       0.00000000      11.61499366       7.37756210       0.00159519
B        7.50000000       4.33012702       0.00000000  F       0.00000000       0.00000000       0.00000000     -11.62644045      -7.37809012      -0.01297196
N        8.33333333       5.16346035       0.00000000  F       0.00000000       0.00000000       0.00000000      11.61236438       7.37918337       0.01655079
B        8.75000000       6.49519053       0.00000000  F       0.00000000       0.00000000       0.00000000     -11.63807913      -7.37144389      -0.02388676
N        9.58333333       7.32852386       0.00000000  F       0.00000000       0.00000000       0.00000000      11.61273635       7.37901746       0.01286042
B        7.50000000       0.00000000       0.00000000  F       0.00000000       0.00000000       0.00000000     -11.61023392      -7.36864452      -0.00096331
N        8.33333333       0.83333333       0.00000000  F       0.00000000       0.00000000       0.00000000      11.61436291       7.37773275      -0.00066711
B        8.75000000       2.16506351       0.00000000  F       0.00000000       0.00000000       0.00000000     -11.61746835      -7.38003470      -0.00520826
N        9.58333333       2.99839684       0.00000000  F       0.00000000       0.00000000       0.00000000      11.61554650       7.38146105       0.01019255
B       10.00000000       4.33012702       0.00000000  F       0.00000000       0.00000000       0.00000000     -11.62355932      -7.37513245      -0.02966134
N       10.83333333       5.16346035       0.00000000  F       0.00000000       0.00000000       0.00000000      11.60443980       7.37306514       0.03453172
B       11.25000000       6.49519053       0.00000000  F       0.00000000       0.00000000       0.00000000     -11.60931390      -7.36725596      -0.02551151
N       12.08333333       7.32852386       0.00000000  F       0.00000000       0.00000000       0.00000000      11.61146160       7.36549222       0.00409526
C        3.67520227       7.51807797       7.38437418  T       0.81505310       2.26449375       1.93897908      -0.24697676       0.51004720      -0.16110460
H        3.78895139       7.89363367       6.32218825  T       0.13593112       0.13556829      -0.23463148       0.28075630       1.52136059       0.68575125
H        4.15743739       6.69706111       6.91961048  T      -0.68432794      -0.14896007      -0.31126951       0.07397540      -2.54574278       0.37439781
C        2.38788511       7.82144317       7.83236611  T       0.60546199      -2.30905460      -0.08458968      -1.46735913      -0.86059236      -0.40760188
H        2.42573703       8.68782702       8.48669655  T       0.09073238      -0.12987017      -0.19612031      -0.31894586       0.40067544       0.41212818
H        4.29771828       7.71039785       8.32682188  T       0.50608744      -0.84386864       0.28200759       0.37601132       0.30415794      -1.30996464
C        0.95488072       7.25466577       7.59839090  T      -0.91011776      -0.43544622      -1.13155995      -0.31425522      -0.22956208       0.66439072
H        0.71287003       6.50179014       8.36555791  T       1.07012278      -0.23362226       0.01925226       0.13239612       0.36368260       0.72594300
H        0.44180202       8.20047025       7.82760713  T       0.39077781       0.35384298      -0.55039882      -0.75931574      -0.12926317      -0.06755544
C        0.40699352       6.46908174       6.41298546  T      -2.08370380       1.37265779      -0.11123160       1.89408764      -0.04050515      -3.42573683
H        1.35390109       5.83024556       6.16852924  T      -0.33024949       0.09849063      -0.32976976      -0.61812855       0.93965121      -0.18678416
H        0.15356900       7.14557662       5.52953065  T      -0.28196532      -0.24296959       0.03951488       1.54416372       0.99370428       1.11359496
C       -0.65022712       5.51703892       5.64139751  T       0.07502894      -0.67515053       0.81581443      -0.31420838      -1.91272471       1.30365032
H       -0.97880628       4.57887959       6.16210875  T      -0.08820867       0.03237815       0.28349406       0.05614081       0.89165380       0.11792147
H       -1.53021524       5.95287215       5.12293348  T       0.04757469       0.08643432       0.11980667       0.34359573       0.10013152       0.41906126
C        0.41023864       5.04979283       4.71425534  T       1.66087493       0.06036455       1.86063549      -0.43401591      -1.61056439      -0.60431816
H        0.29435529       5.05610550       3.63627591  T      -0.02451101       0.74634273       0.16094277       0.02885382       0.82312986       0.03923601
H        1.03115922       4.19275102       5.03909130  T      -0.52493197      -0.42258753      -0.23217277      -0.25747782       0.48165678       0.35057802
