50
Lattice="10.0 0.0 0.0 5.0 8.660254037844386 0.0 0.0 0.0 21.66" Properties=species:S:1:pos:R:3:move_mask:L:1:momenta:R:3:forces:R:3 energy=-340.5654270592357 free_energy=-340.5654270592357 stress="-0.003566552169632569 -0.0034170669618029267 1.6333874976742892e-05 -0.0034170669618029267 -0.004130237996562894 -1.0704145157759296e-05 1.6333874976742892e-05 -1.0704145157759296e-05 1.5412851997425885e-05" pbc="T T F"
B        0.00000000       0.00000000       0.00000000  F       0.00000000       0.00000000       0.00000000     -11.61331899      -7.37189261      -0.00006945
N        0.83333333       0.83333333       0.00000000  F       0.00000000       0.00000000       0.00000000      11.61448262       7.37161223      -0.00001014
B        1.25000000       2.16506351       0.00000000  F       0.00000000       0.00000000       0.00000000     -11.61378885      -7.37194230      -0.00004097
N        2.08333333       2.99839684       0.00000000  F       0.00000000       0.00000000       0.00000000      11.61365787       7.37227272       0.00001169
B        2.50000000       4.33012702       0.00000000  F       0.00000000       0.00000000       0.00000000     -11.61219619      -7.37418279      -0.00132483
N        3.33333333       5.16346035       0.00000000  F       0.00000000       0.00000000       0.00000000      11.61234080       7.37521802       0.00150202
B        3.75000000       6.49519053       0.00000000  F       0.00000000       0.00000000       0.00000000     -11.61070805      -7.37504273      -0.00374543
N        4.58333333       7.32852386       0.00000000  F       0.00000000       0.00000000       0.00000000      11.61300173       7.37259851       0.00126030
B        2.50000000       0.00000000       0.00000000  F       0.00000000       0.00000000       0.00000000     -11.61471815      -7.37220732       0.00003631
N        3.33333333       0.83333333       0.00000000  F       0.00000000       0.00000000       0.00000000      11.61616390       7.37139570      -0.00008322
B        3.75000000       2.16506351       0.00000000  F       0.00000000       0.00000000       0.00000000     -11.61406963      -7.37176233       0.00001010
N        4.58333333       2.99839684       0.00000000  F       0.00000000       0.00000000       0.00000000      11.61414411       7.37159107      -0.00001948
B        5.00000000       4.33012702       0.00000000  F       0.00000000       0.00000000       0.00000000     -11.61391561      -7.37158356      -0.00001694
N        5.83333333       5.16346035       0.00000000  F       0.00000000       0.00000000       0.00000000      11.61408776       7.37179314      -0.00001948
B        6.25000000       6.49519053       0.00000000  F       0.00000000       0.00000000       0.00000000     -11.61431760      -7.37226297       0.00000069
N        7.08333333       7.32852386       0.00000000  F       0.00000000       0.00000000       0.00000000      11.61676844       7.37153902      -0.00007898
B        5.00000000       0.00000000       0.00000000  F       0.00000000       0.00000000       0.00000000     -11.61783577      -7.37358252      -0.00547232
N        5.83333333       0.83333333       0.00000000  F       0.00000000       0.00000000       0.00000000      11.61645548       7.37208435       0.00195537
B        6.25000000       2.16506351       0.00000000  F       0.00000000       0.00000000       0.00000000     -11.61380443      -7.37184183      -0.00011644
N        7.08333333       2.99839684       0.00000000  F       0.00000000       0.00000000       0.00000000      11.61479990       7.37171044      -0.00003255
B        7.50000000       4.33012702       0.00000000  F       0.00000000       0.00000000       0.00000000     -11.61497036      -7.37302018      -0.00043546
N        8.33333333       5.16346035       0.00000000  F       0.00000000       0.00000000       0.00000000      11.61790031       7.37628009       0.00234365
B        8.75000000       6.49519053       0.00000000  F       0.00000000       0.00000000       0.00000000     -11.62194608      -7.37835494      -0.00791099
N        9.58333333       7.32852386       0.00000000  F       0.00000000       0.00000000       0.00000000      11.62071525       7.37539838       0.00400159
B        7.50000000       0.00000000       0.00000000  F       0.00000000       0.00000000       0.00000000     -11.61355472      -7.37283895      -0.00431376
N        8.33333333       0.83333333       0.00000000  F       0.00000000       0.00000000       0.00000000      11.61379048       7.37323264      -0.00010983
B        8.75000000       2.16506351       0.00000000  F       0.00000000       0.00000000       0.00000000     -11.61449848      -7.37192206      -0.00006235
N        9.58333333       2.99839684       0.00000000  F       0.00000000       0.00000000       0.00000000      11.61478122       7.37579648       0.00011143
B       10.00000000       4.33012702       0.00000000  F       0.00000000       0.00000000       0.00000000     -11.61758606      -7.38019483      -0.00587816
N       10.83333333       5.16346035       0.00000000  F       0.00000000       0.00000000       0.00000000      11.61433089       7.38532810       0.00338401
B       11.25000000       6.49519053       0.00000000  F       0.00000000       0.00000000       0.00000000     -11.61837564      -7.38425940      -0.01278938
N       12.08333333       7.32852386       0.00000000  F       0.00000000       0.00000000       0.00000000      11.61222144       7.37921648       0.00392001
C       -2.42264711       5.00775264       7.43796249  T      -2.04685574       0.69358668       0.30487504      -2.29919985       3.20369985      -1.56080500
H       -2.85462650       4.81098500       6.32920173  T      -0.00876349      -0.36951399       0.27322614       1.10123779       0.04208207       2.44464239
H       -2.28916364       4.01199206       8.07735876  T      -0.14445687      -0.40714512      -0.74637709      -0.71598471       2.32557020      -1.10847713
C       -1.01955430       5.80249975       7.31516898  T      -4.36103015       1.60599448       1.99009983      -0.72166571      -5.65501001       1.70123212
H       -0.47090582       4.95010780       6.79972866  T       0.01073266       0.30237812       0.50660107      -0.55006279      -0.28314760       0.42637078
H       -0.61760608       5.47717335       8.34040139  T      -0.44920827       0.75497925      -0.11055611      -0.15323679       1.51511221      -0.58194904
C       -0.39062376       6.85065011       6.62749459  T      -3.62439380       1.13234058      -2.28985204      -0.28263456       2.93936584       1.85696316
H       -3.16851005       6.05640281       7.78095264  T       0.44005798      -1.19589691       0.50012509       1.75572249      -3.58556967      -0.25927131
H       -0.37622004       7.89165825       6.59815648  T       1.09019776      -0.04340595       0.73122453      -2.11744011       2.02077675       1.20629631
C        0.55478312       6.56541380       5.70730571  T      -0.25152636       0.54183404      -0.42262374       4.22427718      -2.93392235      -8.75252367
H        0.01906445       5.77073227       5.04885433  T       0.62503150      -0.73996619       0.23485324       1.27379304       0.65747462       0.97042675
H        1.25108916       7.01075271       4.86556552  T       0.25148640       0.52777879      -0.06879056      -2.48829656       1.08615197       1.05231958
C        1.86472824       6.09795355       6.43827419  T       6.34710297      -0.22587089      -0.66115773      -4.62131506      -2.16923144       1.41343551
H        1.96450540       5.01065304       6.18128121  T       0.22636531       0.01253864       0.24159800      -0.54666368       0.10904883       0.71237761
H        0.93724732       6.36749762       7.35932127  T      -0.01334168       0.27192501      -0.32467857       2.54345100      -0.64646408       0.39442783
C        3.11517578       6.53267070       6.50707779  T       0.90378363      -1.50005353      -0.37120270       0.73792686       1.16271492      -2.67703113
H        3.34908485       7.07956111       5.52568791  T       0.68589702       0.58317306       0.65356067       0.97629569      -0.18872402       1.97595210
H        3.64931703       5.98341302       7.23258914  T      -0.40482838      -0.57111010       0.23218914       1.88375814       0.39989584       0.80960612
