50
Lattice="10.0 0.0 0.0 5.0 8.660254037844386 0.0 0.0 0.0 21.66" Properties=species:S:1:pos:R:3:move_mask:L:1:momenta:R:3:forces:R:3 energy=-340.2257956046977 free_energy=-340.2257956046977 stress="-0.004040588929815082 -0.0034794923694693915 3.580454680487649e-05 -0.0034794923694693915 -0.004529288340028085 0.00015430642634455755 3.580454680487649e-05 0.00015430642634455755 -0.0005797556987876714" pbc="T T F"
B        0.00000000       0.00000000       0.00000000  F       0.00000000       0.00000000       0.00000000     -11.61418161      -7.37151607      -0.00000921
N        0.83333333       0.83333333       0.00000000  F       0.00000000       0.00000000       0.00000000      11.61445654       7.37362098      -0.00011713
B        1.25000000       2.16506351       0.00000000  F       0.00000000       0.00000000       0.00000000     -11.61830739      -7.37751750      -0.00068504
N        2.08333333       2.99839684       0.00000000  F       0.00000000       0.00000000       0.00000000      11.61969940       7.38473980       0.00317580
B        2.50000000       4.33012702       0.00000000  F       0.00000000       0.00000000       0.00000000     -11.61894024      -7.38735235      -0.00599120
N        3.33333333       5.16346035       0.00000000  F       0.00000000       0.00000000       0.00000000      11.61598973       7.37697785       0.00366619
B        3.75000000       6.49519053       0.00000000  F       0.00000000       0.00000000       0.00000000     -11.61291865      -7.37173300      -0.00128690
N        4.58333333       7.32852386       0.00000000  F       0.00000000       0.00000000       0.00000000      11.61391185       7.37247675      -0.00016648
B        2.50000000       0.00000000       0.00000000  F       0.00000000       0.00000000       0.00000000     -11.61401428      -7.37178315      -0.00002402
N        3.33333333       0.83333333       0.00000000  F       0.00000000       0.00000000       0.00000000      11.61415293       7.37469526      -0.00013268
B        3.75000000       2.16506351       0.00000000  F       0.00000000       0.00000000       0.00000000     -11.61527610      -7.37608519       0.00004096
N        4.58333333       2.99839684       0.00000000  F       0.00000000       0.00000000       0.00000000      11.61303707       7.37700119       0.00304380
B        5.00000000       4.33012702       0.00000000  F       0.00000000       0.00000000       0.00000000     -11.61339225      -7.37479632      -0.00006823
N        5.83333333       5.16346035       0.00000000  F       0.00000000       0.00000000       0.00000000      11.61282921       7.37243328       0.00021500
B        6.25000000       6.49519053       0.00000000  F       0.00000000       0.00000000       0.00000000     -11.61375243      -7.37172265      -0.00004757
N        7.08333333       7.32852386       0.00000000  F       0.00000000       0.00000000       0.00000000      11.61444678       7.37156279      -0.00000876
B        5.00000000       0.00000000       0.00000000  F       0.00000000       0.00000000       0.00000000     -11.61382749      -7.37204879      -0.00004836
N        5.83333333       0.83333333       0.00000000  F       0.00000000       0.00000000       0.00000000      11.61394764       7.37193052      -0.00002554
B        6.25000000       2.16506351       0.00000000  F       0.00000000       0.00000000       0.00000000     -11.61418324      -7.37140284      -0.00004392
N        7.08333333       2.99839684       0.00000000  F       0.00000000       0.00000000       0.00000000      11.61367859       7.37192180      -0.00003126
B        7.50000000       4.33012702       0.00000000  F       0.00000000       0.00000000       0.00000000     -11.61441612      -7.37219297      -0.00002080
N        8.33333333       5.16346035       0.00000000  F       0.00000000       0.00000000       0.00000000      11.61658109       7.37150683       0.00001248
B        8.75000000       6.49519053       0.00000000  F       0.00000000       0.00000000       0.00000000     -11.61504066      -7.37232940      -0.00014947
N        9.58333333       7.32852386       0.00000000  F       0.00000000       0.00000000       0.00000000      11.61722302       7.37112469       0.00044084
B        7.50000000       0.00000000       0.00000000  F       0.00000000       0.00000000       0.00000000     -11.61368222      -7.37183008      -0.00009469
N        8.33333333       0.83333333       0.00000000  F       0.00000000       0.00000000       0.00000000      11.61450995       7.37179830      -0.00000905
B        8.75000000       2.16506351       0.00000000  F       0.00000000       0.00000000       0.00000000     -11.61444756      -7.37217482      -0.00001591
N        9.58333333       2.99839684       0.00000000  F       0.00000000       0.00000000       0.00000000      11.61518431       7.37512592       0.00000762
B       10.00000000       4.33012702       0.00000000  F       0.00000000       0.00000000       0.00000000     -11.61980048      -7.37853911      -0.00420016
N       10.83333333       5.16346035       0.00000000  F       0.00000000       0.00000000       0.00000000      11.61882963       7.37650789       0.00423807
B       11.25000000       6.49519053       0.00000000  F       0.00000000       0.00000000       0.00000000     -11.61708269      -7.37408098      -0.00489816
N       12.08333333       7.32852386       0.00000000  F       0.00000000       0.00000000       0.00000000      11.61397025       7.37343151       0.00175716
C        1.76149290       4.44517643       9.04619491  T       0.57242409       3.80386417       0.25519775       0.27394283      -7.42045280       5.91258751
H        2.70250682       4.86315085       9.32112294  T      -0.42547995       1.02213892      -0.56580697       0.83034097       0.66175821       0.12742163
H        1.41829983       3.85698537      10.12499134  T       1.00540106       0.08283121       0.53238561       1.13137549       1.26632351      -3.04217584
C        0.62776192       5.30896813       8.76024989  T       0.32544769      -4.00685098       2.99751706       3.87852649      -3.65158201      -2.63121697
H       -0.10874569       5.54096910       9.32936551  T      -0.46666419      -0.23750560       0.32643367      -6.03112833      -0.10324915       3.86255075
H        1.16306950       6.08806389       9.01329479  T      -0.26447544      -0.14924984       0.44445118       2.58590193       5.94005958       0.07456530
C        0.50371658       4.94252077       7.35871771  T       1.50990061      -0.56132623      -3.68742390     -10.21679356       1.33825983       0.40777588
H       -0.59183797       4.52927096       7.33912326  T      -0.05763498       0.44660792       0.17668092       1.83108385       0.15644871      -0.50759189
H        0.42336668       5.94301332       7.00439410  T       0.37728928       0.09655449       0.04032249      -1.58351416       0.77833970      -1.04765766
C        1.47230897       4.26691493       6.68256884  T      -0.50226144       2.90380951      -1.93310128       1.11015911      -5.21067186       0.74856840
H        1.49675646       3.25295400       6.22909177  T       0.46484582       0.22756527       0.46380390      -0.72246520      -0.80000175       2.00386734
H        1.99349996       3.54383616       8.19407612  T      -0.78714551      -0.43768107       0.17987983      -0.42667174       1.58325170       1.94475222
C        2.39499562       5.50238307       6.75557649  T       1.10319832      -2.76575756       0.37797944       4.08039188       1.01995021      -0.61974456
H        1.87847631       6.46740995       6.54449790  T      -0.23527972      -0.42277098       0.18456967       1.53379721       0.53559517       0.32237621
H        3.36852922       5.30765457       7.15573817  T      -0.43111015      -0.54966679       0.29347107       1.24785178       0.63291712       0.49197572
C        2.12999514       4.68420630       5.56207887  T      -2.07912886      -0.18210866       0.88174369       0.95449688       2.59332707      -7.22547194
H        2.86500381       4.15765316       4.86888012  T       0.70011609      -0.81204753       0.78130242      -0.39657817       0.54388800       1.32713859
H        1.35890540       5.27874808       5.07219656  T       0.24678804       0.76834677       0.50219959      -0.07990181       0.13608863      -2.14824410
