50
Lattice="10.0 0.0 0.0 5.0 8.660254037844386 0.0 0.0 0.0 21.66" Properties=species:S:1:pos:R:3:move_mask:L:1:momenta:R:3:forces:R:3 energy=-343.7909582554691 free_energy=-343.7909582554691 stress="-0.003333157729181355 -0.003391614225325752 6.999406683599012e-05 -0.003391614225325752 -0.004189854505406474 -4.712300599544638e-05 6.999406683599012e-05 -4.712300599544638e-05 -1.363153424650518e-06" pbc="T T F"
B        0.00000000       0.00000000       0.00000000  F       0.00000000       0.00000000       0.00000000     -11.61146908      -7.40510098      -0.01616572
N        0.83333333       0.83333333       0.00000000  F       0.00000000       0.00000000       0.00000000      11.65628440       7.37705630       0.01535098
B        1.25000000       2.16506351       0.00000000  F       0.00000000       0.00000000       0.00000000     -11.60520225      -7.41050359      -0.03782787
N        2.08333333       2.99839684       0.00000000  F       0.00000000       0.00000000       0.00000000      11.64398558       7.38221720       0.01591358
B        2.50000000       4.33012702       0.00000000  F       0.00000000       0.00000000       0.00000000     -11.62476770      -7.37717206      -0.02091741
N        3.33333333       5.16346035       0.00000000  F       0.00000000       0.00000000       0.00000000      11.61536816       7.38205465       0.00505385
B        3.75000000       6.49519053       0.00000000  F       0.00000000       0.00000000       0.00000000     -11.61168599      -7.37257426      -0.00088733
N        4.58333333       7.32852386       0.00000000  F       0.00000000       0.00000000       0.00000000      11.61965181       7.37911316      -0.00111418
B        2.50000000       0.00000000       0.00000000  F       0.00000000       0.00000000       0.00000000     -11.63306146      -7.39972986      -0.02088850
N        3.33333333       0.83333333       0.00000000  F       0.00000000       0.00000000       0.00000000      11.63533269       7.39257663       0.01230403
B        3.75000000       2.16506351       0.00000000  F       0.00000000       0.00000000       0.00000000     -11.63326341      -7.37927988      -0.03335514
N        4.58333333       2.99839684       0.00000000  F       0.00000000       0.00000000       0.00000000      11.62158447       7.37757779       0.02990522
B        5.00000000       4.33012702       0.00000000  F       0.00000000       0.00000000       0.00000000     -11.63760947      -7.36424245      -0.03033436
N        5.83333333       5.16346035       0.00000000  F       0.00000000       0.00000000       0.00000000      11.61006014       7.37699087       0.00392371
B        6.25000000       6.49519053       0.00000000  F       0.00000000       0.00000000       0.00000000     -11.63808396      -7.37614807      -0.01002902
N        7.08333333       7.32852386       0.00000000  F       0.00000000       0.00000000       0.00000000      11.61786986       7.40358377       0.00415680
B        5.00000000       0.00000000       0.00000000  F       0.00000000       0.00000000       0.00000000     -11.60106232      -7.40232919      -0.02001004
N        5.83333333       0.83333333       0.00000000  F       0.00000000       0.00000000       0.00000000      11.64481215       7.39819849       0.02514057
B        6.25000000       2.16506351       0.00000000  F       0.00000000       0.00000000       0.00000000     -11.63845938      -7.38463288      -0.04081101
N        7.08333333       2.99839684       0.00000000  F       0.00000000       0.00000000       0.00000000      11.62634888       7.37819606       0.04240682
B        7.50000000       4.33012702       0.00000000  F       0.00000000       0.00000000       0.00000000     -11.70394503      -7.36421264      -0.02599580
N        8.33333333       5.16346035       0.00000000  F       0.00000000       0.00000000       0.00000000      11.63601706       7.39723711       0.01206671
B        8.75000000       6.49519053       0.00000000  F       0.00000000       0.00000000       0.00000000     -11.63002215      -7.37268433      -0.02644494
N        9.58333333       7.32852386       0.00000000  F       0.00000000       0.00000000       0.00000000      11.62245822       7.38279760       0.00899941
B        7.50000000       0.00000000       0.00000000  F       0.00000000       0.00000000       0.00000000     -11.62839422      -7.40301689      -0.01670306
N        8.33333333       0.83333333       0.00000000  F       0.00000000       0.00000000       0.00000000      11.64568146       7.38555766       0.00653008
B        8.75000000       2.16506351       0.00000000  F       0.00000000       0.00000000       0.00000000     -11.64325235      -7.38942042      -0.04076680
N        9.58333333       2.99839684       0.00000000  F       0.00000000       0.00000000       0.00000000      11.62748872       7.37058603       0.02041214
B       10.00000000       4.33012702       0.00000000  F       0.00000000       0.00000000       0.00000000     -11.61162684      -7.37797020      -0.03077031
N       10.83333333       5.16346035       0.00000000  F       0.00000000       0.00000000       0.00000000      11.61803840       7.38172683       0.00649070
B       11.25000000       6.49519053       0.00000000  F       0.00000000       0.00000000       0.00000000     -11.60981835      -7.37774103      -0.00704357
N       12.08333333       7.32852386       0.00000000  F       0.00000000       0.00000000       0.00000000      11.62143658       7.38736854       0.00114533
C       -1.50343079       3.23805241       3.93796737  T      -1.94694869      -0.42085106       0.16231115       0.02854727      -0.71944203       0.18632473
H       -1.79939385       2.34844011       4.50458666  T      -0.62922961       0.38878478       0.18811942       0.23344531       0.05299454      -0.07401041
H       -1.69073956       3.23621834       2.88909128  T       0.10163429       0.02213017      -0.01109356       0.13576351       0.24386255      -0.53838108
C       -1.00696069       4.27106908       4.70480495  T       1.07339311      -0.60526396      -1.34380048       0.36528164       0.72857233       1.00146878
H       -1.17443501       5.33830692       4.37896635  T       0.28189438      -0.12436447      -0.23062009      -0.00264060      -0.77317882      -0.15281417
H       -1.70573451       4.17150421       5.58430209  T      -0.11654772       0.41022978      -0.29642962       0.06686910       0.33145122       0.18595919
C        0.41720310       4.48183460       5.41398328  T      -0.89745357      -0.69925514       0.93961925       1.36825371       1.57305458       0.85850321
H        0.87630223       5.37859445       4.98316623  T      -0.08552400       0.15968511       0.15705730       0.31413078      -0.32389216      -0.94342631
H        0.20034637       5.00556973       6.39088335  T      -0.18535106      -0.08094141      -0.07070051      -0.59206440      -0.77789818      -0.44034106
C        1.48589144       3.45910815       5.83151886  T       0.70610248       1.12154036       1.82997998      -1.01073070      -0.75891983       2.25939410
H        1.84692654       3.72196326       6.92028126  T       0.24927428       0.00173680      -0.08069129      -1.12451779       0.02797440      -1.66325043
H        0.86351346       2.55147979       5.94826346  T       0.08460736       0.22042488       0.70712320       0.08400558      -0.09802068       0.07300921
C        2.86140816       2.82789417       5.43197905  T      -0.17135831      -0.27493971      -1.31627488       0.53011723      -0.15302988       1.63802611
H        3.70319497       3.50326442       5.62523962  T       0.05814531      -0.18220686       0.36607092       0.02294844       0.76783578       0.19804657
H        2.88674722       2.11748124       6.36415844  T      -0.07558265      -0.53043676      -0.29014760       0.25015166       0.58554601      -0.68288617
C        3.35437165       1.96472559       4.48849670  T      -0.50775289       1.12579570       0.45241735      -0.54475767      -0.27872467      -2.92076270
H        2.90878286       0.96440320       4.46247498  T      -0.35857669       0.11875724      -0.14061885       0.31547069       0.05990433       0.06151618
H        3.96634956       2.32675136       3.61034284  T       0.56544395      -0.50077080      -0.03323659      -0.44096841      -0.48416944       1.12388937
