50
Lattice="10.0 0.0 0.0 5.0 8.660254037844386 0.0 0.0 0.0 21.66" Properties=species:S:1:pos:R:3:move_mask:L:1:momenta:R:3:forces:R:3 energy=-345.1190828853876 free_energy=-345.1190828853876 stress="-0.003281738865342413 -0.0033344042481949538 -2.6273009990167114e-05 -0.0033344042481949538 -0.004245383682255482 -5.132335167579579e-05 -2.6273009990167114e-05 -5.132335167579579e-05 5.796765818813685e-05" pbc="T T F"
B        0.00000000       0.00000000       0.00000000  F       0.00000000       0.00000000       0.00000000     -11.61828611      -7.39629360      -0.01057362
N        0.83333333       0.83333333       0.00000000  F       0.00000000       0.00000000       0.00000000      11.61399363       7.38306667       0.01758163
B        1.25000000       2.16506351       0.00000000  F       0.00000000       0.00000000       0.00000000     -11.59794987      -7.40752592      -0.05136905
N        2.08333333       2.99839684       0.00000000  F       0.00000000       0.00000000       0.00000000      11.61149309       7.39529200       0.03819437
B        2.50000000       4.33012702       0.00000000  F       0.00000000       0.00000000       0.00000000     -11.60483430      -7.39558689      -0.03207693
N        3.33333333       5.16346035       0.00000000  F       0.00000000       0.00000000       0.00000000      11.61464850       7.39138390       0.00705310
B        3.75000000       6.49519053       0.00000000  F       0.00000000       0.00000000       0.00000000     -11.61117240      -7.37756986      -0.00139134
N        4.58333333       7.32852386       0.00000000  F       0.00000000       0.00000000       0.00000000      11.61921545       7.38816337      -0.00088449
B        2.50000000       0.00000000       0.00000000  F       0.00000000       0.00000000       0.00000000     -11.61368703      -7.39153139      -0.01105222
N        3.33333333       0.83333333       0.00000000  F       0.00000000       0.00000000       0.00000000      11.62729503       7.38632742       0.02137560
B        3.75000000       2.16506351       0.00000000  F       0.00000000       0.00000000       0.00000000     -11.60693037      -7.41091464      -0.03554850
N        4.58333333       2.99839684       0.00000000  F       0.00000000       0.00000000       0.00000000      11.62730655       7.40501701       0.01972394
B        5.00000000       4.33012702       0.00000000  F       0.00000000       0.00000000       0.00000000     -11.62380873      -7.38736632      -0.02671788
N        5.83333333       5.16346035       0.00000000  F       0.00000000       0.00000000       0.00000000      11.61407019       7.38573440       0.00371348
B        6.25000000       6.49519053       0.00000000  F       0.00000000       0.00000000       0.00000000     -11.61653991      -7.37456459      -0.00373018
N        7.08333333       7.32852386       0.00000000  F       0.00000000       0.00000000       0.00000000      11.61749430       7.38105431       0.00030319
B        5.00000000       0.00000000       0.00000000  F       0.00000000       0.00000000       0.00000000     -11.60978932      -7.39377032      -0.00987912
N        5.83333333       0.83333333       0.00000000  F       0.00000000       0.00000000       0.00000000      11.62342735       7.39145252       0.00739277
B        6.25000000       2.16506351       0.00000000  F       0.00000000       0.00000000       0.00000000     -11.61540040      -7.40267772      -0.03248688
N        7.08333333       2.99839684       0.00000000  F       0.00000000       0.00000000       0.00000000      11.62684154       7.39303264       0.02132452
B        7.50000000       4.33012702       0.00000000  F       0.00000000       0.00000000       0.00000000     -11.64656816      -7.38877197      -0.03166604
N        8.33333333       5.16346035       0.00000000  F       0.00000000       0.00000000       0.00000000      11.63031586       7.39410022       0.01354711
B        8.75000000       6.49519053       0.00000000  F       0.00000000       0.00000000       0.00000000     -11.62408763      -7.38124072      -0.00781297
N        9.58333333       7.32852386       0.00000000  F       0.00000000       0.00000000       0.00000000      11.62136295       7.38026257       0.00206386
B        7.50000000       0.00000000       0.00000000  F       0.00000000       0.00000000       0.00000000     -11.61504228      -7.38731068      -0.00529888
N        8.33333333       0.83333333       0.00000000  F       0.00000000       0.00000000       0.00000000      11.62545784       7.39351813       0.00572893
B        8.75000000       2.16506351       0.00000000  F       0.00000000       0.00000000       0.00000000     -11.63240543      -7.39578240      -0.04542041
N        9.58333333       2.99839684       0.00000000  F       0.00000000       0.00000000       0.00000000      11.59442450       7.40009391       0.04462975
B       10.00000000       4.33012702       0.00000000  F       0.00000000       0.00000000       0.00000000     -11.64570123      -7.37778608      -0.05282110
N       10.83333333       5.16346035       0.00000000  F       0.00000000       0.00000000       0.00000000      11.61015484       7.39445149       0.02020650
B       11.25000000       6.49519053       0.00000000  F       0.00000000       0.00000000       0.00000000     -11.61186981      -7.37370541      -0.00653891
N       12.08333333       7.32852386       0.00000000  F       0.00000000       0.00000000       0.00000000      11.61553344       7.37749280      -0.00025180
C        3.70319369       2.60608224       4.98929136  T       0.17266047       0.12604726       0.60042411      -1.35333809      -0.13493144      -0.31216029
H        4.48890384       2.57303942       4.25671364  T      -0.04533071      -0.11695170      -0.12804475       0.49304132      -0.08947008       0.09710287
H        3.74114003       3.12727032       5.94131416  T       0.13003851      -0.12225523       0.10418070       0.54319663       0.01579764       0.21212814
C        2.36758322       2.14225653       4.69393492  T       1.15053688       1.23994707       0.75493884      -0.22736479       0.01984271       1.90556736
H        2.24257520       1.73965364       3.70216197  T      -0.09548960       0.22473522       0.06513984      -0.05982674      -0.75971035      -0.41995417
H        1.98040819       1.49633524       5.58079275  T       0.04773145       0.15337427      -0.33719448       0.57704337       0.32389324      -1.35332726
C        1.45624547       3.40724407       4.74836988  T      -0.19386755       0.37785902       0.34290872      -1.03394929      -0.63761183       0.67327961
H        1.96804182       4.06149220       4.05329631  T      -0.30413092       0.15662201      -0.14820290      -0.04576056       1.01274526       0.04038060
H        1.42670508       3.72064004       5.81079307  T      -0.12951851      -0.13272061       0.04660775       0.36608652       0.46126953      -0.40522469
C       -0.02902482       3.18476540       4.36291495  T      -0.26306998      -0.21461184      -1.91445053       0.35942185       0.21273532      -0.31128729
H       -0.10333637       3.47331017       3.29005963  T       0.15950263       0.28310361      -0.06892891      -0.31957637      -0.70763947       0.35821428
H       -0.33167542       2.17934391       4.65526383  T      -0.10394966       0.08040174       0.16798894       0.26609160      -0.61927405      -0.64868990
C       -1.06533550       4.03174852       5.14531093  T      -0.38965799      -1.40845962       0.03354837      -1.32012286       0.61290663      -0.34954718
H       -0.85799613       5.08327810       4.78761216  T      -0.08087245      -0.13993888       0.00122680      -0.42144229      -0.42466104       0.55324113
H       -0.84615617       3.97853558       6.22628792  T       0.01871382       0.04107565      -0.15118648      -0.04384685       0.18901611       0.00523321
C       -2.55161694       3.75208434       5.04532268  T       0.22416998       0.41123786      -0.28887903       1.69596079       0.36322545      -0.58817573
H       -3.19325555       4.32450611       5.74732453  T       0.45876971       0.02116125      -0.00448564      -0.04807283      -0.43297242      -0.33337288
H       -2.96884004       3.13017321       4.18960877  T      -0.01896545       0.31809904      -0.03349196       0.57349647       0.59679397       1.01927372
