50
Lattice="10.0 0.0 0.0 5.0 8.660254037844386 0.0 0.0 0.0 21.66" Properties=species:S:1:pos:R:3:move_mask:L:1:momenta:R:3:forces:R:3 energy=-345.5214268366621 free_energy=-345.5214268366621 stress="-0.0034819698477204833 -0.0033556844607413217 -3.785215839186921e-05 -0.0033556844607413217 -0.004213605384198953 -2.1221338078024718e-05 -3.785215839186921e-05 -2.1221338078024718e-05 -6.58702999538667e-05" pbc="T T F"
B        0.00000000       0.00000000       0.00000000  F       0.00000000       0.00000000       0.00000000     -11.62138959      -7.38534372      -0.00368702
N        0.83333333       0.83333333       0.00000000  F       0.00000000       0.00000000       0.00000000      11.62506292       7.38833732       0.00809406
B        1.25000000       2.16506351       0.00000000  F       0.00000000       0.00000000       0.00000000     -11.62524882      -7.39981767      -0.02885832
N        2.08333333       2.99839684       0.00000000  F       0.00000000       0.00000000       0.00000000      11.63486333       7.38993040       0.02487138
B        2.50000000       4.33012702       0.00000000  F       0.00000000       0.00000000       0.00000000     -11.61539199      -7.39513454      -0.02645513
N        3.33333333       5.16346035       0.00000000  F       0.00000000       0.00000000       0.00000000      11.62536012       7.37809809       0.00595127
B        3.75000000       6.49519053       0.00000000  F       0.00000000       0.00000000       0.00000000     -11.61038908      -7.37288967      -0.00181441
N        4.58333333       7.32852386       0.00000000  F       0.00000000       0.00000000       0.00000000      11.61654339       7.37749086      -0.00079997
B        2.50000000       0.00000000       0.00000000  F       0.00000000       0.00000000       0.00000000     -11.61366069      -7.38306428      -0.00463658
N        3.33333333       0.83333333       0.00000000  F       0.00000000       0.00000000       0.00000000      11.62447976       7.37390314       0.00488003
B        3.75000000       2.16506351       0.00000000  F       0.00000000       0.00000000       0.00000000     -11.59895086      -7.39228350      -0.01717524
N        4.58333333       2.99839684       0.00000000  F       0.00000000       0.00000000       0.00000000      11.62547518       7.37575306       0.00485571
B        5.00000000       4.33012702       0.00000000  F       0.00000000       0.00000000       0.00000000     -11.60755271      -7.37514808      -0.00349976
N        5.83333333       5.16346035       0.00000000  F       0.00000000       0.00000000       0.00000000      11.61755356       7.37451328      -0.00096969
B        6.25000000       6.49519053       0.00000000  F       0.00000000       0.00000000       0.00000000     -11.61366057      -7.37380348       0.00029711
N        7.08333333       7.32852386       0.00000000  F       0.00000000       0.00000000       0.00000000      11.61667615       7.37382153      -0.00109470
B        5.00000000       0.00000000       0.00000000  F       0.00000000       0.00000000       0.00000000     -11.61258417      -7.37345748      -0.00005729
N        5.83333333       0.83333333       0.00000000  F       0.00000000       0.00000000       0.00000000      11.61718909       7.37277018      -0.00051537
B        6.25000000       2.16506351       0.00000000  F       0.00000000       0.00000000       0.00000000     -11.61269772      -7.37426352      -0.00016137
N        7.08333333       2.99839684       0.00000000  F       0.00000000       0.00000000       0.00000000      11.61180293       7.37480058       0.00159177
B        7.50000000       4.33012702       0.00000000  F       0.00000000       0.00000000       0.00000000     -11.62634098      -7.37356796      -0.00635388
N        8.33333333       5.16346035       0.00000000  F       0.00000000       0.00000000       0.00000000      11.60693360       7.37916569       0.00657183
B        8.75000000       6.49519053       0.00000000  F       0.00000000       0.00000000       0.00000000     -11.62426114      -7.37092371      -0.00562489
N        9.58333333       7.32852386       0.00000000  F       0.00000000       0.00000000       0.00000000      11.61271791       7.38102345       0.00284526
B        7.50000000       0.00000000       0.00000000  F       0.00000000       0.00000000       0.00000000     -11.61399359      -7.37368160       0.00005461
N        8.33333333       0.83333333       0.00000000  F       0.00000000       0.00000000       0.00000000      11.61777420       7.38169415       0.00144758
B        8.75000000       2.16506351       0.00000000  F       0.00000000       0.00000000       0.00000000     -11.63513621      -7.38673196      -0.01890987
N        9.58333333       2.99839684       0.00000000  F       0.00000000       0.00000000       0.00000000      11.62117891       7.38982383       0.03123930
B       10.00000000       4.33012702       0.00000000  F       0.00000000       0.00000000       0.00000000     -11.66005343      -7.37903825      -0.02672769
N       10.83333333       5.16346035       0.00000000  F       0.00000000       0.00000000       0.00000000      11.62196201       7.39206687       0.02302934
B       11.25000000       6.49519053       0.00000000  F       0.00000000       0.00000000       0.00000000     -11.61963529      -7.37061426      -0.01635455
N       12.08333333       7.32852386       0.00000000  F       0.00000000       0.00000000       0.00000000      11.61280353       7.37583782       0.00199210
C        1.23494817       3.52524620       4.44258758  T       1.20329249      -1.78945328       0.76240924      -0.13343630       0.47578031       1.11039205
H        0.62811288       3.67862586       3.58347408  T       0.09250174       0.00870547       0.05031990      -0.45912684       0.07676252      -0.81959225
H        2.22350344       3.10889279       4.35691093  T      -0.15462944      -0.06617343       0.01706897       0.30517997      -0.29548775      -0.06798535
C        0.76276454       4.01291813       5.67991014  T       0.33766648       0.52226684      -0.05027095      -0.29051164      -0.35810650      -0.38993259
H       -0.03054730       3.36037550       6.11536863  T      -0.34466669      -0.03418209       0.09660357       0.18204779       0.00168535      -0.16034157
H        1.55704204       3.93034232       6.43181706  T       0.17387275       0.00815933      -0.10168350       0.27253084      -0.10154344       0.17982121
C        0.19019307       5.45433334       5.79038343  T      -0.11308970       0.15660683       1.08717581       1.75084316      -0.41577459      -0.10198538
H       -0.76174416       5.59716153       5.36177697  T       0.08405352       0.03821978       0.01398406      -1.40281156      -0.07540714      -0.84259258
H        0.88809496       6.16229329       5.30409534  T      -0.17486227       0.04038451       0.17436404      -0.08355320      -0.25687855      -0.00570424
C        0.11540964       5.75602762       7.23374257  T      -0.27702840      -0.69506674       1.20486823       0.53904301       0.15153496       1.29534390
H       -0.77658222       5.29891634       7.72257828  T      -0.09018736      -0.08017099       0.16826039       0.42251877       0.33284533      -0.21469295
H        1.03775377       5.40333575       7.77093360  T       0.02262613      -0.05794990       0.05053468      -0.65939091       0.15399013      -0.29622745
C        0.11170405       7.29883189       7.29962892  T       0.27949883      -0.66716411      -0.36764549      -0.57553893       0.17176488       1.20334582
H       -0.69033213       7.61032583       6.63836734  T      -0.44227868       0.03390390       0.00465985      -0.45736437       0.33354998      -0.36846901
H        1.01104491       7.69794189       6.83173889  T      -0.07086017       0.10342559       0.03196212       0.44383734       0.14050339      -0.26527554
C        0.01002743       7.87961483       8.59132446  T      -0.15318691      -0.02612336       0.14249902       0.67065339      -0.43779463       0.49981555
H        0.91312788       7.84107236       9.24342290  T       0.05283767       0.09847217      -0.10918486      -0.27092815       0.01525951      -0.39655129
H       -0.88301444       8.25392562       9.08737792  T      -0.00643527      -0.21373408      -0.08299820      -0.25142210       0.08804965      -0.31339396
