50
Lattice="10.0 0.0 0.0 5.0 8.660254037844386 0.0 0.0 0.0 21.66" Properties=species:S:1:pos:R:3:move_mask:L:1:momenta:R:3:forces:R:3 energy=-345.21792345080036 free_energy=-345.21792345080036 stress="-0.00341093956682154 -0.003412318542139322 3.916326851661341e-05 -0.003412318542139322 -0.004237297501174842 1.681564958998105e-05 3.916326851661341e-05 1.681564958998105e-05 1.2514039550241375e-05" pbc="T T F"
B        0.00000000       0.00000000       0.00000000  F       0.00000000       0.00000000       0.00000000     -11.61308399      -7.37529969      -0.00048539
N        0.83333333       0.83333333       0.00000000  F       0.00000000       0.00000000       0.00000000      11.61688748       7.38022811       0.00242481
B        1.25000000       2.16506351       0.00000000  F       0.00000000       0.00000000       0.00000000     -11.61059898      -7.39566926      -0.01837513
N        2.08333333       2.99839684       0.00000000  F       0.00000000       0.00000000       0.00000000      11.61915300       7.37276342       0.01857473
B        2.50000000       4.33012702       0.00000000  F       0.00000000       0.00000000       0.00000000     -11.58755949      -7.38491313      -0.02943459
N        3.33333333       5.16346035       0.00000000  F       0.00000000       0.00000000       0.00000000      11.61826727       7.37300916       0.00923162
B        3.75000000       6.49519053       0.00000000  F       0.00000000       0.00000000       0.00000000     -11.60326893      -7.37004238      -0.00544999
N        4.58333333       7.32852386       0.00000000  F       0.00000000       0.00000000       0.00000000      11.61212918       7.37025096       0.00001347
B        2.50000000       0.00000000       0.00000000  F       0.00000000       0.00000000       0.00000000     -11.61465116      -7.37281758       0.00021085
N        3.33333333       0.83333333       0.00000000  F       0.00000000       0.00000000       0.00000000      11.61602386       7.37475684       0.00007121
B        3.75000000       2.16506351       0.00000000  F       0.00000000       0.00000000       0.00000000     -11.60639976      -7.37877074      -0.00396463
N        4.58333333       2.99839684       0.00000000  F       0.00000000       0.00000000       0.00000000      11.62033452       7.36901497       0.00171216
B        5.00000000       4.33012702       0.00000000  F       0.00000000       0.00000000       0.00000000     -11.60451371      -7.37447187      -0.00258567
N        5.83333333       5.16346035       0.00000000  F       0.00000000       0.00000000       0.00000000      11.61481386       7.37118961      -0.00084868
B        6.25000000       6.49519053       0.00000000  F       0.00000000       0.00000000       0.00000000     -11.61499003      -7.37296067       0.00016147
N        7.08333333       7.32852386       0.00000000  F       0.00000000       0.00000000       0.00000000      11.61216718       7.37551290       0.00016075
B        5.00000000       0.00000000       0.00000000  F       0.00000000       0.00000000       0.00000000     -11.61400172      -7.36960099      -0.00342622
N        5.83333333       0.83333333       0.00000000  F       0.00000000       0.00000000       0.00000000      11.61423396       7.37515547      -0.00051450
B        6.25000000       2.16506351       0.00000000  F       0.00000000       0.00000000       0.00000000     -11.61236387      -7.37206184       0.00016968
N        7.08333333       2.99839684       0.00000000  F       0.00000000       0.00000000       0.00000000      11.61462358       7.37598835       0.00021113
B        7.50000000       4.33012702       0.00000000  F       0.00000000       0.00000000       0.00000000     -11.63048374      -7.38333906      -0.00969039
N        8.33333333       5.16346035       0.00000000  F       0.00000000       0.00000000       0.00000000      11.61781774       7.38493826       0.00770414
B        8.75000000       6.49519053       0.00000000  F       0.00000000       0.00000000       0.00000000     -11.64302295      -7.37724961      -0.01692750
N        9.58333333       7.32852386       0.00000000  F       0.00000000       0.00000000       0.00000000      11.61694788       7.38593567       0.00686041
B        7.50000000       0.00000000       0.00000000  F       0.00000000       0.00000000       0.00000000     -11.61049650      -7.36886238      -0.00098020
N        8.33333333       0.83333333       0.00000000  F       0.00000000       0.00000000       0.00000000      11.61468624       7.37857359      -0.00053185
B        8.75000000       2.16506351       0.00000000  F       0.00000000       0.00000000       0.00000000     -11.62477683      -7.38532488      -0.00737028
N        9.58333333       2.99839684       0.00000000  F       0.00000000       0.00000000       0.00000000      11.62145702       7.38859158       0.01227068
B       10.00000000       4.33012702       0.00000000  F       0.00000000       0.00000000       0.00000000     -11.64394870      -7.37928315      -0.03570605
N       10.83333333       5.16346035       0.00000000  F       0.00000000       0.00000000       0.00000000      11.61087638       7.38367087       0.03483025
B       11.25000000       6.49519053       0.00000000  F       0.00000000       0.00000000       0.00000000     -11.62328947      -7.36968419      -0.02630835
N       12.08333333       7.32852386       0.00000000  F       0.00000000       0.00000000       0.00000000      11.61454713       7.36970660       0.00609061
C        0.31241455       1.55421914       8.85007027  T       1.09619686      -0.30144816      -0.48569010      -0.17501591      -1.11457493      -0.66245897
H        0.97531614       0.71167429       9.11761389  T      -0.15998605      -0.11749598       0.22147513      -0.25735224       0.70781025       0.08368056
H       -0.19469763       2.19086017       9.55581621  T      -0.09493046       0.02470846      -0.02680767      -0.00339503      -0.01163919       0.56208275
C       -0.28970766       1.55723146       7.48497728  T       0.22594044      -0.29791164      -0.47556898       2.17094558      -0.88690054       0.57667778
H        0.11046535       0.71193597       6.85957760  T      -0.08046007       0.06120666      -0.31834358      -0.86554140       0.21066447       0.22409881
H       -1.33038348       1.75089503       7.51667252  T      -0.04395717      -0.25761375      -0.31707261      -1.41554206      -0.06320926      -0.32613702
C        0.54888739       2.75019331       7.20149434  T       0.67369606      -0.20472814      -0.09837393       1.25285013       0.46133257      -0.62129358
H        1.62652201       2.55909146       7.43911242  T       0.18351906       0.19352055       0.01038101      -0.34731140      -0.18212884      -0.53186794
H        0.35677523       3.52146128       7.92694159  T       0.09430029       0.11713759       0.08336108      -0.61955302       0.87077080       0.13989776
C        0.43032431       3.28918357       5.74430019  T      -0.19376534      -0.34313998       0.71831239       0.03892163      -0.10066415       1.18067491
H        0.85243589       2.55854502       5.06157493  T       0.14195478      -0.01100444       0.01019244       0.11263020      -0.40814899      -0.39055630
H       -0.65717004       3.37490610       5.48370578  T       0.02192890      -0.10278585       0.14179446       0.60801707       0.39387178       0.26040388
C        1.35192507       4.53550333       5.75351638  T       0.37796834       0.06438752       0.27691972      -0.91986861      -0.43218925       0.37457961
H        2.39016393       4.16316275       5.76083920  T       0.03836218      -0.07761528      -0.07380849       0.03384593       0.33696194      -0.11264282
H        1.12556090       5.17045739       6.62898703  T      -0.09121827      -0.08044802       0.05498873       0.19931011      -0.02897546      -0.14864268
C        0.68946503       4.89230738       4.55976505  T       0.11246364       0.07359433       0.49515462      -0.11864413       0.34433657      -1.97080737
H        1.12471332       4.62502186       3.56205466  T      -0.00907723       0.17616093      -0.19860342      -0.20818765       0.17515143       1.02032795
H       -0.16947173       5.58682189       4.50825372  T      -0.00167190      -0.01891010       0.17034843       0.51637432      -0.27140414       0.40388413
