50
Lattice="10.0 0.0 0.0 5.0 8.660254037844386 0.0 0.0 0.0 21.66" Properties=species:S:1:pos:R:3:move_mask:L:1:momenta:R:3:forces:R:3 energy=-343.36944282124256 free_energy=-343.36944282124256 stress="-0.003424269144759604 -0.003371312631696088 1.6820612859105724e-05 -0.003371312631696088 -0.004184483701062545 4.5867534827450434e-05 1.6820612859105724e-05 4.5867534827450434e-05 -5.666373614483576e-05" pbc="T T F"
B        0.00000000       0.00000000       0.00000000  F       0.00000000       0.00000000       0.00000000     -11.63370949      -7.38444254      -0.00957729
N        0.83333333       0.83333333       0.00000000  F       0.00000000       0.00000000       0.00000000      11.63059198       7.41538264       0.01938082
B        1.25000000       2.16506351       0.00000000  F       0.00000000       0.00000000       0.00000000     -11.66913940      -7.39767402      -0.04825200
N        2.08333333       2.99839684       0.00000000  F       0.00000000       0.00000000       0.00000000      11.62925065       7.40323735       0.04177899
B        2.50000000       4.33012702       0.00000000  F       0.00000000       0.00000000       0.00000000     -11.65780832      -7.38391666      -0.04662645
N        3.33333333       5.16346035       0.00000000  F       0.00000000       0.00000000       0.00000000      11.62740447       7.38208618       0.01404063
B        3.75000000       6.49519053       0.00000000  F       0.00000000       0.00000000       0.00000000     -11.62449751      -7.36817710      -0.02073944
N        4.58333333       7.32852386       0.00000000  F       0.00000000       0.00000000       0.00000000      11.61049951       7.39065460       0.00225899
B        2.50000000       0.00000000       0.00000000  F       0.00000000       0.00000000       0.00000000     -11.64431172      -7.39736244      -0.04574092
N        3.33333333       0.83333333       0.00000000  F       0.00000000       0.00000000       0.00000000      11.63809345       7.39323828       0.02897982
B        3.75000000       2.16506351       0.00000000  F       0.00000000       0.00000000       0.00000000     -11.60956073      -7.39998091      -0.05097062
N        4.58333333       2.99839684       0.00000000  F       0.00000000       0.00000000       0.00000000      11.63950603       7.37974586       0.02239488
B        5.00000000       4.33012702       0.00000000  F       0.00000000       0.00000000       0.00000000     -11.62582356      -7.40251284      -0.04368113
N        5.83333333       5.16346035       0.00000000  F       0.00000000       0.00000000       0.00000000      11.62288557       7.38985887       0.02100377
B        6.25000000       6.49519053       0.00000000  F       0.00000000       0.00000000       0.00000000     -11.66265529      -7.38197977      -0.03233148
N        7.08333333       7.32852386       0.00000000  F       0.00000000       0.00000000       0.00000000      11.62901776       7.41967408       0.02029221
B        5.00000000       0.00000000       0.00000000  F       0.00000000       0.00000000       0.00000000     -11.60194521      -7.38987296      -0.03203941
N        5.83333333       0.83333333       0.00000000  F       0.00000000       0.00000000       0.00000000      11.64418632       7.37476708       0.00978482
B        6.25000000       2.16506351       0.00000000  F       0.00000000       0.00000000       0.00000000     -11.60708724      -7.41873208      -0.02630505
N        7.08333333       2.99839684       0.00000000  F       0.00000000       0.00000000       0.00000000      11.65154463       7.40793805       0.01242012
B        7.50000000       4.33012702       0.00000000  F       0.00000000       0.00000000       0.00000000     -11.67461203      -7.44094787      -0.03747689
N        8.33333333       5.16346035       0.00000000  F       0.00000000       0.00000000       0.00000000      11.66316486       7.44309023      -0.00391679
B        8.75000000       6.49519053       0.00000000  F       0.00000000       0.00000000       0.00000000     -11.66382954      -7.41488719      -0.03865642
N        9.58333333       7.32852386       0.00000000  F       0.00000000       0.00000000       0.00000000      11.65186869       7.41068656       0.01126366
B        7.50000000       0.00000000       0.00000000  F       0.00000000       0.00000000       0.00000000     -11.61194382      -7.38232609      -0.00272538
N        8.33333333       0.83333333       0.00000000  F       0.00000000       0.00000000       0.00000000      11.62981288       7.39261008       0.00234551
B        8.75000000       2.16506351       0.00000000  F       0.00000000       0.00000000       0.00000000     -11.65379766      -7.43586738      -0.02844283
N        9.58333333       2.99839684       0.00000000  F       0.00000000       0.00000000       0.00000000      11.67400389       7.42891672       0.01862974
B       10.00000000       4.33012702       0.00000000  F       0.00000000       0.00000000       0.00000000     -11.67378964      -7.44002167      -0.05726782
N       10.83333333       5.16346035       0.00000000  F       0.00000000       0.00000000       0.00000000      11.66175786       7.41609990       0.02296225
B       11.25000000       6.49519053       0.00000000  F       0.00000000       0.00000000       0.00000000     -11.61703019      -7.38804176      -0.03791521
N       12.08333333       7.32852386       0.00000000  F       0.00000000       0.00000000       0.00000000      11.62153918       7.38729437       0.00566430
C        3.11718314       3.18435369       4.08757551  T       3.31121409       0.04781738       1.96240817      -1.04806212      -2.66254084      -0.10352024
H        2.85941461       2.59917498       3.17262253  T       0.24974682       0.31055240      -0.22139168       0.43152119       0.75037609       0.27842513
H        3.59667412       4.14404970       4.04325565  T       1.03648306      -0.26630254      -0.27823239       0.19578356       0.16309858       0.21985882
C        2.61802422       2.45043252       5.26015232  T       0.52463922       0.37370916      -0.02301059       0.63285087       3.05979277       0.48861036
H        2.67307380       1.39324006       5.57948262  T      -0.17279476      -0.07065744       0.12888569       0.95870374       0.11715050      -0.58666890
H        3.09580246       3.04134142       6.09251072  T       0.03591290      -0.23897820       0.16760774      -0.26188851      -0.56698679      -0.08922925
C        1.09858129       2.56026070       5.29332450  T      -2.44824283      -1.40781259       2.74125036      -2.84875011      -2.47846678      -1.71370722
H        0.85024499       1.69998853       4.60012696  T       0.14548651      -0.24846561       0.33668416      -0.31421492       0.72546206       0.53460135
H        0.71631945       2.33984321       6.25184798  T       0.02016198      -0.19404467       0.41461659       0.14660739      -1.17310947       1.58125754
C        0.06211002       3.68573804       5.00553895  T      -0.44846714      -1.42980093       1.30209330       3.10104775       2.88695620      -0.18807021
H        0.21847548       4.27729983       5.93612467  T       0.02649583       0.10965482       0.14337523      -0.04712289       0.19636795      -0.19740038
H        0.70076155       4.20149535       4.25863122  T       0.22180878      -0.14605058       0.23746140      -0.33940858       0.15177229      -0.06917270
C       -1.38162460       4.25332707       4.65050289  T       0.50898709      -0.00111061      -0.02394207      -1.24098175      -2.84423659      -0.30153538
H       -2.06996587       3.50719768       4.12120758  T       0.00250072      -0.09735725       0.17715027       0.86507792       0.71676779       0.37322155
H       -1.86931746       4.31310326       5.63137015  T       0.23860010       0.28873242       0.20222977      -0.35058612       0.01035668       0.31281447
C       -1.37734081       5.51650641       4.06493670  T      -1.80510697       1.01588837       1.92672070       0.33223997       2.32848637      -0.14704169
H       -0.39490977       6.04026173       4.04248869  T      -0.29620019       0.02031438      -0.34139531      -0.44861928      -0.47104350      -0.11155040
H       -2.25028737       6.17742904       3.81259668  T      -0.23995358       0.26705538       0.14147560       0.24221549      -0.91874090       0.02857175
