50
Lattice="10.0 0.0 0.0 5.0 8.660254037844386 0.0 0.0 0.0 21.66" Properties=species:S:1:pos:R:3:move_mask:L:1:momenta:R:3:forces:R:3 energy=-339.6367112376931 free_energy=-339.6367112376931 stress="-0.0036932117458016245 -0.0031761031802535773 0.00011454463252749289 -0.0031761031802535773 -0.004373159942929577 -0.0003080426550109625 0.00011454463252749289 -0.0003080426550109625 -0.0001357955085882565" pbc="T T F"
B        0.00000000       0.00000000       0.00000000  F       0.00000000       0.00000000       0.00000000     -11.61388094      -7.37170530      -0.00000075
N        0.83333333       0.83333333       0.00000000  F       0.00000000       0.00000000       0.00000000      11.61388032       7.37179257      -0.00000240
B        1.25000000       2.16506351       0.00000000  F       0.00000000       0.00000000       0.00000000     -11.61377246      -7.37188121      -0.00049157
N        2.08333333       2.99839684       0.00000000  F       0.00000000       0.00000000       0.00000000      11.61372420       7.37172162       0.00036854
B        2.50000000       4.33012702       0.00000000  F       0.00000000       0.00000000       0.00000000     -11.61382204      -7.37171278      -0.00001099
N        3.33333333       5.16346035       0.00000000  F       0.00000000       0.00000000       0.00000000      11.61386570       7.37170128      -0.00000041
B        3.75000000       6.49519053       0.00000000  F       0.00000000       0.00000000       0.00000000     -11.61386864      -7.37169076      -0.00000009
N        4.58333333       7.32852386       0.00000000  F       0.00000000       0.00000000       0.00000000      11.61386583       7.37168730      -0.00000004
B        2.50000000       0.00000000       0.00000000  F       0.00000000       0.00000000       0.00000000     -11.61386500      -7.37169929      -0.00000069
N        3.33333333       0.83333333       0.00000000  F       0.00000000       0.00000000       0.00000000      11.61385900       7.37171359      -0.00000006
B        3.75000000       2.16506351       0.00000000  F       0.00000000       0.00000000       0.00000000     -11.61384445      -7.37172008      -0.00004738
N        4.58333333       2.99839684       0.00000000  F       0.00000000       0.00000000       0.00000000      11.61386225       7.37169383       0.00000367
B        5.00000000       4.33012702       0.00000000  F       0.00000000       0.00000000       0.00000000     -11.61386910      -7.37169249      -0.00000010
N        5.83333333       5.16346035       0.00000000  F       0.00000000       0.00000000       0.00000000      11.61387902       7.37169640      -0.00000007
B        6.25000000       6.49519053       0.00000000  F       0.00000000       0.00000000       0.00000000     -11.61386677      -7.37169350       0.00000009
N        7.08333333       7.32852386       0.00000000  F       0.00000000       0.00000000       0.00000000      11.61386994       7.37168455      -0.00000003
B        5.00000000       0.00000000       0.00000000  F       0.00000000       0.00000000       0.00000000     -11.61386378      -7.37168874      -0.00000006
N        5.83333333       0.83333333       0.00000000  F       0.00000000       0.00000000       0.00000000      11.61386771       7.37169196      -0.00000001
B        6.25000000       2.16506351       0.00000000  F       0.00000000       0.00000000       0.00000000     -11.61387273      -7.37169714      -0.00000007
N        7.08333333       2.99839684       0.00000000  F       0.00000000       0.00000000       0.00000000      11.61389317       7.37169913       0.00000065
B        7.50000000       4.33012702       0.00000000  F       0.00000000       0.00000000       0.00000000     -11.61389758      -7.37171511      -0.00000102
N        8.33333333       5.16346035       0.00000000  F       0.00000000       0.00000000       0.00000000      11.61398089       7.37167975      -0.00000103
B        8.75000000       6.49519053       0.00000000  F       0.00000000       0.00000000       0.00000000     -11.61387357      -7.37171173      -0.00000130
N        9.58333333       7.32852386       0.00000000  F       0.00000000       0.00000000       0.00000000      11.61388555       7.37169008      -0.00000015
B        7.50000000       0.00000000       0.00000000  F       0.00000000       0.00000000       0.00000000     -11.61387521      -7.37169777      -0.00000001
N        8.33333333       0.83333333       0.00000000  F       0.00000000       0.00000000       0.00000000      11.61388696       7.37172769      -0.00000082
B        8.75000000       2.16506351       0.00000000  F       0.00000000       0.00000000       0.00000000     -11.61386581      -7.37172560      -0.00002203
N        9.58333333       2.99839684       0.00000000  F       0.00000000       0.00000000       0.00000000      11.61403071       7.37189487       0.00094612
B       10.00000000       4.33012702       0.00000000  F       0.00000000       0.00000000       0.00000000     -11.61402217      -7.37162576      -0.00087007
N       10.83333333       5.16346035       0.00000000  F       0.00000000       0.00000000       0.00000000      11.61375059       7.37165272       0.00008358
B       11.25000000       6.49519053       0.00000000  F       0.00000000       0.00000000       0.00000000     -11.61386532      -7.37168804      -0.00000162
N       12.08333333       7.32852386       0.00000000  F       0.00000000       0.00000000       0.00000000      11.61388651       7.37171063      -0.00000015
C        2.17263320       4.60578998       7.08987142  T       3.23231150       0.73444018       1.44811393       0.53743465       5.67629510      -0.71367315
H        1.25769680       5.06032233       6.68774079  T       0.38649011       0.23401385       0.26209645       0.41982153       0.91724743       0.32067231
H        3.10805753       5.14011491       7.28382203  T       0.12841256       0.27224730       0.23239084      -0.85237620       0.63626377       0.45365434
C        2.35107092       3.41347689       6.48391041  T       0.69038592       1.48337360      -2.17414489       1.12644789      -5.75930033       0.34229996
H        2.73019791       3.19968927       7.48664923  T       0.01671113      -0.21410341      -0.05604830       0.76833708      -1.39867970       0.83945489
H        3.12978269       3.04652892       5.76872593  T      -0.46456867       0.34556310      -0.68092574      -0.95413047       0.69872315       0.27593091
C        1.01794249       2.63095642       6.56273845  T      -1.32984780      -1.32052325       0.81179454      -0.93995330       0.03590889      -2.83472877
H        0.96893650       1.47541396       6.52392433  T       0.86841830      -0.30749246       0.56408600       1.00715982       1.60372257      -1.26765363
H        0.59988094       3.39784460       5.60113853  T       0.05003919       0.17954389       0.22475785       0.11166463      -3.04896460       1.70643621
C        0.01967877       2.84872033       7.68704267  T      -3.31738837      -5.20144959      -4.23210504       2.37724344       2.32202499      -3.20575048
H        0.48989684       4.31629062       7.74018443  T      -0.85672856      -0.82380913       0.18606691      -1.53095698      -3.39089015       0.70262311
H       -0.80385317       2.39562079       7.13100140  T       1.02713051       0.55383446       0.82999023      -1.71453543       0.84518260       1.18733218
C        0.25060084       2.28058296       9.13855912  T       0.18732325       1.23251654      -0.47005428       1.03052965      -6.27601803      -5.66497126
H        1.25880192       2.29561188       9.01621565  T       0.01190561      -0.24314738      -0.27802856       4.04621413      -0.44202171       0.80238589
H        0.02424927       1.17291675       9.09596494  T      -0.28067349      -0.35451550       0.64555704      -0.26930722       0.89744741       0.53762123
C       -0.34169622       3.24554337       9.73077212  T       0.03725868       0.63596008       1.11095532      -2.82376292       4.40848367       3.65148504
H       -1.05303030       3.68554609       9.00439226  T       0.16617236       0.48924565       0.33264909      -1.18139650       1.22976575       2.58514724
H        0.05315558       3.42254556      10.71596299  T       0.44220426       0.24607078      -0.10802951      -1.15849655       1.04471653       0.28178423
