50
Lattice="10.0 0.0 0.0 5.0 8.660254037844386 0.0 0.0 0.0 21.66" Properties=species:S:1:pos:R:3:move_mask:L:1:momenta:R:3:forces:R:3 energy=-339.5568815299266 free_energy=-339.5568815299266 stress="-0.003259782378805495 -0.0031920844322511385 9.512167324791568e-05 -0.0031920844322511385 -0.003917595359131552 -7.221738559152766e-05 9.512167324791568e-05 -7.221738559152766e-05 -5.258192679410085e-05" pbc="T T F"
B        0.00000000       0.00000000       0.00000000  F       0.00000000       0.00000000       0.00000000     -11.61217388      -7.37509598      -0.00094537
N        0.83333333       0.83333333       0.00000000  F       0.00000000       0.00000000       0.00000000      11.62207853       7.37032679      -0.00018354
B        1.25000000       2.16506351       0.00000000  F       0.00000000       0.00000000       0.00000000     -11.60449320      -7.37732179      -0.00190784
N        2.08333333       2.99839684       0.00000000  F       0.00000000       0.00000000       0.00000000      11.61544511       7.37335741      -0.00058306
B        2.50000000       4.33012702       0.00000000  F       0.00000000       0.00000000       0.00000000     -11.61231096      -7.37299048       0.00010627
N        3.33333333       5.16346035       0.00000000  F       0.00000000       0.00000000       0.00000000      11.61105300       7.37360248       0.00082319
B        3.75000000       6.49519053       0.00000000  F       0.00000000       0.00000000       0.00000000     -11.61622875      -7.37063499       0.00015193
N        4.58333333       7.32852386       0.00000000  F       0.00000000       0.00000000       0.00000000      11.61484612       7.37252339      -0.00071059
B        2.50000000       0.00000000       0.00000000  F       0.00000000       0.00000000       0.00000000     -11.61314198      -7.37091429       0.00000912
N        3.33333333       0.83333333       0.00000000  F       0.00000000       0.00000000       0.00000000      11.61324851       7.37422912       0.00003890
B        3.75000000       2.16506351       0.00000000  F       0.00000000       0.00000000       0.00000000     -11.61779472      -7.37373862      -0.00459540
N        4.58333333       2.99839684       0.00000000  F       0.00000000       0.00000000       0.00000000      11.60737796       7.37396962       0.00875171
B        5.00000000       4.33012702       0.00000000  F       0.00000000       0.00000000       0.00000000     -11.63213973      -7.36688919      -0.01509488
N        5.83333333       5.16346035       0.00000000  F       0.00000000       0.00000000       0.00000000      11.60883571       7.37800658       0.01002992
B        6.25000000       6.49519053       0.00000000  F       0.00000000       0.00000000       0.00000000     -11.61877137      -7.36857186      -0.00491545
N        7.08333333       7.32852386       0.00000000  F       0.00000000       0.00000000       0.00000000      11.61335226       7.37234031       0.00170427
B        5.00000000       0.00000000       0.00000000  F       0.00000000       0.00000000       0.00000000     -11.61791536      -7.37702510      -0.00221933
N        5.83333333       0.83333333       0.00000000  F       0.00000000       0.00000000       0.00000000      11.62051224       7.38359659       0.00545401
B        6.25000000       2.16506351       0.00000000  F       0.00000000       0.00000000       0.00000000     -11.62547048      -7.37617242      -0.02153041
N        7.08333333       2.99839684       0.00000000  F       0.00000000       0.00000000       0.00000000      11.60856804       7.38017107       0.02727562
B        7.50000000       4.33012702       0.00000000  F       0.00000000       0.00000000       0.00000000     -11.62781951      -7.37221430      -0.03088351
N        8.33333333       5.16346035       0.00000000  F       0.00000000       0.00000000       0.00000000      11.61576641       7.36929301       0.01090038
B        8.75000000       6.49519053       0.00000000  F       0.00000000       0.00000000       0.00000000     -11.60959508      -7.36626559      -0.00663809
N        9.58333333       7.32852386       0.00000000  F       0.00000000       0.00000000       0.00000000      11.61239555       7.37300278      -0.00069757
B        7.50000000       0.00000000       0.00000000  F       0.00000000       0.00000000       0.00000000     -11.61833752      -7.38814543      -0.00843159
N        8.33333333       0.83333333       0.00000000  F       0.00000000       0.00000000       0.00000000      11.62772533       7.38596468       0.00700339
B        8.75000000       2.16506351       0.00000000  F       0.00000000       0.00000000       0.00000000     -11.60095615      -7.40389528      -0.03731245
N        9.58333333       2.99839684       0.00000000  F       0.00000000       0.00000000       0.00000000      11.61960466       7.38342436       0.01203589
B       10.00000000       4.33012702       0.00000000  F       0.00000000       0.00000000       0.00000000     -11.60097486      -7.38057519      -0.02258790
N       10.83333333       5.16346035       0.00000000  F       0.00000000       0.00000000       0.00000000      11.60855533       7.37209339       0.00300409
B       11.25000000       6.49519053       0.00000000  F       0.00000000       0.00000000       0.00000000     -11.61065646      -7.37224972      -0.00015794
N       12.08333333       7.32852386       0.00000000  F       0.00000000       0.00000000       0.00000000      11.61801105       7.37562812      -0.00069786
C        2.37860968       2.19826806       7.99230362  T       1.27339492      -1.34934940       2.10841875      -0.60746099      -3.40027666       0.88051689
H        2.14133061       1.65274226       8.98379303  T      -0.41822303      -0.22004365       0.07318100       0.75708894       0.74124006      -1.23021213
H        2.46669852       1.49443908       7.13073514  T      -0.32051761      -0.91933617       0.50198810       0.27421841       0.89016261       0.32944052
C        2.15056341       3.54509626       7.97574514  T       1.07446944      -0.28683779      -1.77105027      -3.63613989       2.21440904       1.04468195
H        2.90858926       4.25683923       8.23751367  T       0.42748692       0.07153660       0.43987391       0.70558927       0.29229273       0.07557509
H        1.31640885       3.62129095       8.85068236  T       1.27069774       0.23702937       0.85863188       1.26638191       0.31046047      -1.27462808
C        1.29117454       4.28838779       6.68166704  T      -0.10046263       2.62959202      -2.13090154      -1.08891975       1.54868839      -0.50709571
H        1.46156089       5.57627958       6.53736813  T      -0.61527740       0.10798035       0.72691210      -0.98682854      -3.83567497       0.96301951
H        2.00544475       3.89651307       5.99445658  T       0.31398129       0.49031253      -0.26482559       0.62314480      -0.28676859      -1.60959965
C       -0.11324443       3.57225432       6.33419370  T      -1.35501667       0.66430854      -0.35758731       1.87369512      -4.34362620       1.25893568
H       -0.89235529       3.43026929       6.99107373  T      -0.28577032      -0.15124496      -0.51966806      -1.54366022       2.14768261       3.69498751
H       -0.09625831       2.30882964       6.46549376  T       0.34748869      -0.53674700      -0.63374822       2.72843783       2.32644857       0.43073145
C       -1.22438148       3.10635516       5.24274697  T       1.39360108       0.48607887       1.39463428      -4.26537036      -0.14198754      -3.56850235
H       -0.83417871       4.06936480       4.98582110  T      -0.64492553       0.61310727       0.16149813       0.97595349       0.54575392      -1.64787483
H       -1.18610866       1.96890597       5.26000805  T      -0.79898408      -0.13003082       0.74963869       1.15996794       0.38203314      -0.87130451
C       -2.55951071       3.01596698       4.67733113  T      -0.36136801      -0.24405384      -0.74564599       0.66911064       0.72831662       1.67150138
H       -2.96490462       3.36616486       3.66770437  T      -0.55267303      -0.12924883      -0.34879566       0.89701854      -0.52847404       1.50859737
H       -3.23179187       2.62772215       5.49628937  T      -0.60202275      -0.29171646      -0.42717587       0.19917706       0.41049039      -1.07596602
